LAMMPS Description

     92  atoms
     100  bonds
     160  angles
     240  dihedrals
     52  impropers

     3  atom types
     3  bond types
     4  angle types
     6  dihedral types
     3  improper types

  0.0 11.2527 xlo xhi
  0.0 5.951 ylo yhi
  0.0 13.4140822059 zlo zhi
  3.6439365509e-16 -2.2519684308 9.7076333816e-16 xy xz yz

Masses

1 14.01  # nb
2 12.01  # ca
3 1.008  # ha

Atoms  # full

1 1 1 -0.693636 0.535 4.616 1.461
2 1 2 0.534823 0.29 5.421 2.513
3 1 2 -0.002672 0.878 6.721 2.657
4 1 2 -0.20686 1.75 7.162 1.667
5 1 2 -0.002672 2.043 6.336 0.587
6 1 2 0.534823 1.392 5.058 0.52
7 1 2 -0.274751 -0.592 4.957 3.534
8 1 2 -0.100851 -0.854 5.723 4.628
9 1 2 -0.140261 -0.266 7.006 4.774
10 1 2 -0.187088 0.564 7.494 3.815
11 1 2 -0.187088 2.977 6.694 -0.433
12 1 2 -0.140261 3.235 5.839 -1.456
13 1 2 -0.100851 2.567 4.591 -1.538
14 1 2 -0.274751 1.668 4.204 -0.594
15 1 3 0.151995 2.167 8.064 1.708
16 1 3 0.152509 -0.983 4.059 3.409
17 1 3 0.128637 -1.446 5.404 5.343
18 1 3 0.130168 -0.469 7.564 5.559
19 1 3 0.133735 0.969 8.379 3.887
20 1 3 0.133735 3.419 7.576 -0.381
21 1 3 0.130168 3.89 6.088 -2.146
22 1 3 0.128637 2.757 3.993 -2.258
23 1 3 0.152509 1.204 3.356 -0.663
24 2 1 -0.693636 3.966 1.64 5.247
25 2 2 0.534823 4.211 2.446 4.194
26 2 2 -0.002672 3.623 3.745 4.05
27 2 2 -0.20686 2.751 4.187 5.04
28 2 2 -0.002672 2.457 3.36 6.12
29 2 2 0.534823 3.109 2.082 6.187
30 2 2 -0.274751 5.093 1.982 3.173
31 2 2 -0.100851 5.354 2.748 2.079
32 2 2 -0.140261 4.767 4.03 1.933
33 2 2 -0.187088 3.937 4.518 2.892
34 2 2 -0.187088 1.524 3.719 7.14
35 2 2 -0.140261 1.266 2.863 8.163
36 2 2 -0.100851 1.934 1.616 8.245
37 2 2 -0.274751 2.832 1.229 7.301
38 2 3 0.151995 2.334 5.088 4.999
39 2 3 0.152509 5.483 1.083 3.299
40 2 3 0.128637 5.947 2.428 1.364
41 2 3 0.130168 4.97 4.588 1.148
42 2 3 0.133735 3.532 5.404 2.82
43 2 3 0.133735 1.081 4.6 7.088
44 2 3 0.130168 0.611 3.112 8.853
45 2 3 0.128637 1.744 1.018 8.965
46 2 3 0.152509 3.297 0.381 7.37
47 3 1 -0.693636 8.467 1.335 11.954
48 3 2 0.534823 8.712 0.53 10.901
49 3 2 -0.002672 8.124 -0.77 10.757
50 3 2 -0.20686 7.252 -1.211 11.747
51 3 2 -0.002672 6.958 -0.385 12.827
52 3 2 0.534823 7.61 0.893 12.894
53 3 2 -0.274751 9.593 0.994 9.88
54 3 2 -0.100851 9.855 0.228 8.786
55 3 2 -0.140261 9.268 -1.055 8.64
56 3 2 -0.187088 8.438 -1.543 9.599
57 3 2 -0.187088 6.024 -0.743 13.847
58 3 2 -0.140261 5.767 0.112 14.87
59 3 2 -0.100851 6.434 1.36 14.953
60 3 2 -0.274751 7.333 1.747 14.008
61 3 3 0.151995 6.835 -2.113 11.707
62 3 3 0.152509 9.984 1.892 10.006
63 3 3 0.128637 10.447 0.547 8.071
64 3 3 0.130168 9.471 -1.613 7.855
65 3 3 0.133735 8.032 -2.428 9.527
66 3 3 0.133735 5.582 -1.625 13.795
67 3 3 0.130168 5.111 -0.137 15.56
68 3 3 0.128637 6.245 1.958 15.672
69 3 3 0.152509 7.798 2.595 14.077
70 4 1 -0.693636 5.036 4.311 8.168
71 4 2 0.534823 4.791 3.505 9.22
72 4 2 -0.002672 5.379 2.206 9.365
73 4 2 -0.20686 6.251 1.764 8.374
74 4 2 -0.002672 6.544 2.591 7.294
75 4 2 0.534823 5.892 3.869 7.227
76 4 2 -0.274751 3.909 3.969 10.241
77 4 2 -0.100851 3.647 3.203 11.336
78 4 2 -0.140261 4.234 1.921 11.481
79 4 2 -0.187088 5.064 1.433 10.522
80 4 2 -0.187088 7.478 2.232 6.274
81 4 2 -0.140261 7.736 3.088 5.251
82 4 2 -0.100851 7.068 4.335 5.169
83 4 2 -0.274751 6.169 4.722 6.113
84 4 3 0.151995 6.667 0.863 8.415
85 4 3 0.152509 3.518 4.868 10.116
86 4 3 0.128637 3.055 3.523 12.05
87 4 3 0.130168 4.031 1.363 12.266
88 4 3 0.133735 5.47 0.547 10.595
89 4 3 0.133735 7.92 1.351 6.326
90 4 3 0.130168 8.391 2.839 4.561
91 4 3 0.128637 7.257 4.933 4.449
92 4 3 0.152509 5.705 5.57 6.044

Bonds

1 3 4 15
2 3 7 16
3 3 8 17
4 3 9 18
5 3 10 19
6 3 11 20
7 3 12 21
8 3 13 22
9 3 14 23
10 3 27 38
11 3 30 39
12 3 31 40
13 3 32 41
14 3 33 42
15 3 34 43
16 3 35 44
17 3 36 45
18 3 37 46
19 3 50 61
20 3 53 62
21 3 54 63
22 3 55 64
23 3 56 65
24 3 57 66
25 3 58 67
26 3 59 68
27 3 60 69
28 3 73 84
29 3 76 85
30 3 77 86
31 3 78 87
32 3 79 88
33 3 80 89
34 3 81 90
35 3 82 91
36 3 83 92
37 1 1 6
38 1 1 2
39 1 24 25
40 1 24 29
41 1 47 52
42 1 47 48
43 1 70 75
44 1 70 71
45 2 2 7
46 2 2 3
47 2 3 10
48 2 3 4
49 2 4 5
50 2 5 6
51 2 5 11
52 2 6 14
53 2 7 8
54 2 8 9
55 2 9 10
56 2 11 12
57 2 12 13
58 2 13 14
59 2 25 26
60 2 25 30
61 2 26 27
62 2 26 33
63 2 27 28
64 2 28 34
65 2 28 29
66 2 29 37
67 2 30 31
68 2 31 32
69 2 32 33
70 2 34 35
71 2 35 36
72 2 36 37
73 2 48 49
74 2 48 53
75 2 49 50
76 2 49 56
77 2 50 51
78 2 51 57
79 2 51 52
80 2 52 60
81 2 53 54
82 2 54 55
83 2 55 56
84 2 57 58
85 2 58 59
86 2 59 60
87 2 71 72
88 2 71 76
89 2 72 79
90 2 72 73
91 2 73 74
92 2 74 75
93 2 74 80
94 2 75 83
95 2 76 77
96 2 77 78
97 2 78 79
98 2 80 81
99 2 81 82
100 2 82 83

Angles

1 1 1 2 3
2 1 1 6 5
3 1 1 2 7
4 1 1 6 14
5 1 24 25 26
6 1 24 29 28
7 1 24 25 30
8 1 24 29 37
9 1 47 48 49
10 1 47 52 51
11 1 47 48 53
12 1 47 52 60
13 1 70 71 72
14 1 70 75 74
15 1 70 71 76
16 1 70 75 83
17 2 2 7 16
18 2 3 10 19
19 2 3 4 15
20 2 5 4 15
21 2 5 11 20
22 2 6 14 23
23 2 7 8 17
24 2 8 7 16
25 2 8 9 18
26 2 9 8 17
27 2 9 10 19
28 2 10 9 18
29 2 11 12 21
30 2 12 11 20
31 2 12 13 22
32 2 13 12 21
33 2 13 14 23
34 2 14 13 22
35 2 25 30 39
36 2 26 27 38
37 2 26 33 42
38 2 28 27 38
39 2 28 34 43
40 2 29 37 46
41 2 30 31 40
42 2 31 30 39
43 2 31 32 41
44 2 32 31 40
45 2 32 33 42
46 2 33 32 41
47 2 34 35 44
48 2 35 34 43
49 2 35 36 45
50 2 36 35 44
51 2 36 37 46
52 2 37 36 45
53 2 48 53 62
54 2 49 50 61
55 2 49 56 65
56 2 51 50 61
57 2 51 57 66
58 2 52 60 69
59 2 53 54 63
60 2 54 53 62
61 2 54 55 64
62 2 55 54 63
63 2 55 56 65
64 2 56 55 64
65 2 57 58 67
66 2 58 57 66
67 2 58 59 68
68 2 59 58 67
69 2 59 60 69
70 2 60 59 68
71 2 71 76 85
72 2 72 79 88
73 2 72 73 84
74 2 74 73 84
75 2 74 80 89
76 2 75 83 92
77 2 76 77 86
78 2 77 76 85
79 2 77 78 87
80 2 78 77 86
81 2 78 79 88
82 2 79 78 87
83 2 80 81 90
84 2 81 80 89
85 2 81 82 91
86 2 82 81 90
87 2 82 83 92
88 2 83 82 91
89 3 2 7 8
90 3 2 3 10
91 3 2 3 4
92 3 3 2 7
93 3 3 10 9
94 3 3 4 5
95 3 4 3 10
96 3 4 5 6
97 3 4 5 11
98 3 5 6 14
99 3 5 11 12
100 3 6 5 11
101 3 6 14 13
102 3 7 8 9
103 3 8 9 10
104 3 11 12 13
105 3 12 13 14
106 3 25 26 27
107 3 25 26 33
108 3 25 30 31
109 3 26 25 30
110 3 26 27 28
111 3 26 33 32
112 3 27 26 33
113 3 27 28 34
114 3 27 28 29
115 3 28 34 35
116 3 28 29 37
117 3 29 28 34
118 3 29 37 36
119 3 30 31 32
120 3 31 32 33
121 3 34 35 36
122 3 35 36 37
123 3 48 49 50
124 3 48 49 56
125 3 48 53 54
126 3 49 48 53
127 3 49 50 51
128 3 49 56 55
129 3 50 49 56
130 3 50 51 57
131 3 50 51 52
132 3 51 57 58
133 3 51 52 60
134 3 52 51 57
135 3 52 60 59
136 3 53 54 55
137 3 54 55 56
138 3 57 58 59
139 3 58 59 60
140 3 71 72 79
141 3 71 72 73
142 3 71 76 77
143 3 72 71 76
144 3 72 79 78
145 3 72 73 74
146 3 73 72 79
147 3 73 74 75
148 3 73 74 80
149 3 74 75 83
150 3 74 80 81
151 3 75 74 80
152 3 75 83 82
153 3 76 77 78
154 3 77 78 79
155 3 80 81 82
156 3 81 82 83
157 4 2 1 6
158 4 25 24 29
159 4 48 47 52
160 4 71 70 75

Dihedrals

1 1 1 2 7 16
2 1 1 6 14 23
3 1 24 25 30 39
4 1 24 29 37 46
5 1 47 48 53 62
6 1 47 52 60 69
7 1 70 71 76 85
8 1 70 75 83 92
9 2 1 2 3 4
10 2 1 6 5 4
11 2 1 2 7 8
12 2 1 2 3 10
13 2 1 6 5 11
14 2 1 6 14 13
15 2 24 25 26 27
16 2 24 29 28 27
17 2 24 25 30 31
18 2 24 25 26 33
19 2 24 29 28 34
20 2 24 29 37 36
21 2 47 48 49 50
22 2 47 52 51 50
23 2 47 48 53 54
24 2 47 48 49 56
25 2 47 52 51 57
26 2 47 52 60 59
27 2 70 71 72 73
28 2 70 75 74 73
29 2 70 71 76 77
30 2 70 71 72 79
31 2 70 75 74 80
32 2 70 75 83 82
33 3 2 7 8 17
34 3 2 3 10 19
35 3 2 3 4 15
36 3 3 2 7 16
37 3 3 10 9 18
38 3 4 3 10 19
39 3 4 5 11 20
40 3 5 6 14 23
41 3 5 11 12 21
42 3 6 5 4 15
43 3 6 5 11 20
44 3 6 14 13 22
45 3 7 8 9 18
46 3 8 9 10 19
47 3 9 8 7 16
48 3 10 3 4 15
49 3 10 9 8 17
50 3 11 5 4 15
51 3 11 12 13 22
52 3 12 13 14 23
53 3 13 12 11 20
54 3 14 13 12 21
55 3 25 26 27 38
56 3 25 26 33 42
57 3 25 30 31 40
58 3 26 25 30 39
59 3 26 33 32 41
60 3 27 26 33 42
61 3 27 28 34 43
62 3 28 34 35 44
63 3 28 29 37 46
64 3 29 28 27 38
65 3 29 28 34 43
66 3 29 37 36 45
67 3 30 31 32 41
68 3 31 32 33 42
69 3 32 31 30 39
70 3 33 26 27 38
71 3 33 32 31 40
72 3 34 28 27 38
73 3 34 35 36 45
74 3 35 36 37 46
75 3 36 35 34 43
76 3 37 36 35 44
77 3 48 49 50 61
78 3 48 49 56 65
79 3 48 53 54 63
80 3 49 48 53 62
81 3 49 56 55 64
82 3 50 49 56 65
83 3 50 51 57 66
84 3 51 57 58 67
85 3 51 52 60 69
86 3 52 51 50 61
87 3 52 51 57 66
88 3 52 60 59 68
89 3 53 54 55 64
90 3 54 55 56 65
91 3 55 54 53 62
92 3 56 49 50 61
93 3 56 55 54 63
94 3 57 51 50 61
95 3 57 58 59 68
96 3 58 59 60 69
97 3 59 58 57 66
98 3 60 59 58 67
99 3 71 72 79 88
100 3 71 72 73 84
101 3 71 76 77 86
102 3 72 71 76 85
103 3 72 79 78 87
104 3 73 72 79 88
105 3 73 74 80 89
106 3 74 75 83 92
107 3 74 80 81 90
108 3 75 74 73 84
109 3 75 74 80 89
110 3 75 83 82 91
111 3 76 77 78 87
112 3 77 78 79 88
113 3 78 77 76 85
114 3 79 72 73 84
115 3 79 78 77 86
116 3 80 74 73 84
117 3 80 81 82 91
118 3 81 82 83 92
119 3 82 81 80 89
120 3 83 82 81 90
121 4 2 7 8 9
122 4 2 3 10 9
123 4 2 3 4 5
124 4 3 2 7 8
125 4 3 10 9 8
126 4 3 4 5 6
127 4 3 4 5 11
128 4 4 3 2 7
129 4 4 3 10 9
130 4 4 5 6 14
131 4 4 5 11 12
132 4 5 4 3 10
133 4 5 6 14 13
134 4 5 11 12 13
135 4 6 5 11 12
136 4 6 14 13 12
137 4 7 2 3 10
138 4 7 8 9 10
139 4 11 5 6 14
140 4 11 12 13 14
141 4 25 26 27 28
142 4 25 26 33 32
143 4 25 30 31 32
144 4 26 25 30 31
145 4 26 27 28 34
146 4 26 27 28 29
147 4 26 33 32 31
148 4 27 26 25 30
149 4 27 26 33 32
150 4 27 28 34 35
151 4 27 28 29 37
152 4 28 27 26 33
153 4 28 34 35 36
154 4 28 29 37 36
155 4 29 28 34 35
156 4 29 37 36 35
157 4 30 25 26 33
158 4 30 31 32 33
159 4 34 28 29 37
160 4 34 35 36 37
161 4 48 49 50 51
162 4 48 49 56 55
163 4 48 53 54 55
164 4 49 48 53 54
165 4 49 50 51 57
166 4 49 50 51 52
167 4 49 56 55 54
168 4 50 49 48 53
169 4 50 49 56 55
170 4 50 51 57 58
171 4 50 51 52 60
172 4 51 50 49 56
173 4 51 57 58 59
174 4 51 52 60 59
175 4 52 51 57 58
176 4 52 60 59 58
177 4 53 48 49 56
178 4 53 54 55 56
179 4 57 51 52 60
180 4 57 58 59 60
181 4 71 72 79 78
182 4 71 72 73 74
183 4 71 76 77 78
184 4 72 71 76 77
185 4 72 79 78 77
186 4 72 73 74 75
187 4 72 73 74 80
188 4 73 72 71 76
189 4 73 72 79 78
190 4 73 74 75 83
191 4 73 74 80 81
192 4 74 73 72 79
193 4 74 75 83 82
194 4 74 80 81 82
195 4 75 74 80 81
196 4 75 83 82 81
197 4 76 71 72 79
198 4 76 77 78 79
199 4 80 74 75 83
200 4 80 81 82 83
201 5 16 7 8 17
202 5 17 8 9 18
203 5 18 9 10 19
204 5 20 11 12 21
205 5 21 12 13 22
206 5 22 13 14 23
207 5 39 30 31 40
208 5 40 31 32 41
209 5 41 32 33 42
210 5 43 34 35 44
211 5 44 35 36 45
212 5 45 36 37 46
213 5 62 53 54 63
214 5 63 54 55 64
215 5 64 55 56 65
216 5 66 57 58 67
217 5 67 58 59 68
218 5 68 59 60 69
219 5 85 76 77 86
220 5 86 77 78 87
221 5 87 78 79 88
222 5 89 80 81 90
223 5 90 81 82 91
224 5 91 82 83 92
225 6 3 2 1 6
226 6 2 1 6 5
227 6 6 1 2 7
228 6 2 1 6 14
229 6 26 25 24 29
230 6 25 24 29 28
231 6 29 24 25 30
232 6 25 24 29 37
233 6 49 48 47 52
234 6 48 47 52 51
235 6 52 47 48 53
236 6 48 47 52 60
237 6 72 71 70 75
238 6 71 70 75 74
239 6 75 70 71 76
240 6 71 70 75 83

Impropers

1 1 2 4 3 10
2 1 4 6 5 11
3 1 25 27 26 33
4 1 27 29 28 34
5 1 48 50 49 56
6 1 50 52 51 57
7 1 71 73 72 79
8 1 73 75 74 80
9 2 2 8 7 16
10 2 3 9 10 19
11 2 3 5 4 15
12 2 5 12 11 20
13 2 6 13 14 23
14 2 7 9 8 17
15 2 8 10 9 18
16 2 11 13 12 21
17 2 12 14 13 22
18 2 25 31 30 39
19 2 26 28 27 38
20 2 26 32 33 42
21 2 28 35 34 43
22 2 29 36 37 46
23 2 30 32 31 40
24 2 31 33 32 41
25 2 34 36 35 44
26 2 35 37 36 45
27 2 48 54 53 62
28 2 49 51 50 61
29 2 49 55 56 65
30 2 51 58 57 66
31 2 52 59 60 69
32 2 53 55 54 63
33 2 54 56 55 64
34 2 57 59 58 67
35 2 58 60 59 68
36 2 71 77 76 85
37 2 72 78 79 88
38 2 72 74 73 84
39 2 74 81 80 89
40 2 75 82 83 92
41 2 76 78 77 86
42 2 77 79 78 87
43 2 80 82 81 90
44 2 81 83 82 91
45 3 1 3 2 7
46 3 1 5 6 14
47 3 24 26 25 30
48 3 24 28 29 37
49 3 47 49 48 53
50 3 47 51 52 60
51 3 70 72 71 76
52 3 70 74 75 83

