LAMMPS Description

     184  atoms
     200  bonds
     320  angles
     480  dihedrals
     104  impropers

     3  atom types
     3  bond types
     4  angle types
     6  dihedral types
     3  improper types

  0.0 12.582 xlo xhi
  0.0 13.644 ylo yhi
  0.0 10.7295937421 zlo zhi
  8.3545404638e-16 -5.261018735 1.0538709502e-15 xy xz yz

Masses

1 14.01  # nb
2 12.01  # ca
3 1.008  # ha

Atoms  # full

1 1 1 -0.693636 1.706 8.59 5.571
2 1 2 0.534823 1.923 9.596 6.455
3 1 2 -0.002672 3.215 9.694 7.112
4 1 2 -0.20686 4.199 8.798 6.869
5 1 2 -0.002672 3.958 7.781 5.944
6 1 2 0.534823 2.674 7.688 5.301
7 1 2 -0.274751 0.947 10.54 6.788
8 1 2 -0.100851 1.121 11.495 7.678
9 1 2 -0.140261 2.42 11.633 8.328
10 1 2 -0.187088 3.414 10.764 8.064
11 1 2 -0.187088 4.95 6.834 5.671
12 1 2 -0.140261 4.678 5.8 4.752
13 1 2 -0.100851 3.434 5.733 4.133
14 1 2 -0.274751 2.487 6.654 4.389
15 1 3 0.151995 5.034 8.86 7.317
16 1 3 0.152509 0.109 10.489 6.344
17 1 3 0.128637 0.41 12.087 7.893
18 1 3 0.130168 2.565 12.341 8.944
19 1 3 0.133735 4.25 10.855 8.506
20 1 3 0.133735 5.797 6.888 6.098
21 1 3 0.130168 5.343 5.151 4.557
22 1 3 0.128637 3.252 5.029 3.522
23 1 3 0.152509 1.657 6.595 3.931
24 2 1 -0.693636 4.337 5.054 0.206
25 2 2 0.534823 4.554 4.048 1.09
26 2 2 -0.002672 5.846 3.95 1.747
27 2 2 -0.20686 6.829 4.846 1.504
28 2 2 -0.002672 6.588 5.863 0.579
29 2 2 0.534823 5.304 5.956 -0.063
30 2 2 -0.274751 3.578 3.104 1.423
31 2 2 -0.100851 3.751 2.149 2.313
32 2 2 -0.140261 5.051 2.011 2.964
33 2 2 -0.187088 6.044 2.88 2.7
34 2 2 -0.187088 7.58 6.81 0.306
35 2 2 -0.140261 7.309 7.844 -0.613
36 2 2 -0.100851 6.065 7.911 -1.232
37 2 2 -0.274751 5.117 6.99 -0.975
38 2 3 0.151995 7.664 4.784 1.952
39 2 3 0.152509 2.739 3.155 0.98
40 2 3 0.128637 3.041 1.557 2.529
41 2 3 0.130168 5.196 1.303 3.579
42 2 3 0.133735 6.881 2.789 3.141
43 2 3 0.133735 8.427 6.756 0.733
44 2 3 0.130168 7.974 8.493 -0.808
45 2 3 0.128637 5.882 8.615 -1.843
46 2 3 0.152509 4.287 7.049 -1.434
47 3 1 -0.693636 7.997 1.768 5.571
48 3 2 0.534823 8.214 2.774 6.455
49 3 2 -0.002672 9.506 2.872 7.112
50 3 2 -0.20686 10.49 1.976 6.869
51 3 2 -0.002672 10.249 0.959 5.944
52 3 2 0.534823 8.965 0.866 5.301
53 3 2 -0.274751 7.238 3.718 6.788
54 3 2 -0.100851 7.412 4.673 7.678
55 3 2 -0.140261 8.711 4.811 8.328
56 3 2 -0.187088 9.705 3.942 8.064
57 3 2 -0.187088 11.241 0.012 5.671
58 3 2 -0.140261 10.969 -1.022 4.752
59 3 2 -0.100851 9.725 -1.089 4.133
60 3 2 -0.274751 8.778 -0.168 4.389
61 3 3 0.151995 11.325 2.038 7.317
62 3 3 0.152509 6.4 3.667 6.344
63 3 3 0.128637 6.701 5.265 7.893
64 3 3 0.130168 8.856 5.519 8.944
65 3 3 0.133735 10.541 4.033 8.506
66 3 3 0.133735 12.088 0.066 6.098
67 3 3 0.130168 11.634 -1.671 4.557
68 3 3 0.128637 9.543 -1.793 3.522
69 3 3 0.152509 7.948 -0.227 3.931
70 4 1 -0.693636 10.628 11.876 0.206
71 4 2 0.534823 10.845 10.87 1.09
72 4 2 -0.002672 12.137 10.772 1.747
73 4 2 -0.20686 13.12 11.668 1.504
74 4 2 -0.002672 12.879 12.685 0.579
75 4 2 0.534823 11.595 12.778 -0.063
76 4 2 -0.274751 9.869 9.926 1.423
77 4 2 -0.100851 10.042 8.971 2.313
78 4 2 -0.140261 11.342 8.833 2.964
79 4 2 -0.187088 12.335 9.702 2.7
80 4 2 -0.187088 13.871 13.632 0.306
81 4 2 -0.140261 13.6 14.666 -0.613
82 4 2 -0.100851 12.356 14.733 -1.232
83 4 2 -0.274751 11.408 13.812 -0.975
84 4 3 0.151995 13.955 11.606 1.952
85 4 3 0.152509 9.03 9.977 0.98
86 4 3 0.128637 9.332 8.379 2.529
87 4 3 0.130168 11.487 8.125 3.579
88 4 3 0.133735 13.172 9.611 3.141
89 4 3 0.133735 14.718 13.578 0.733
90 4 3 0.130168 14.265 15.315 -0.808
91 4 3 0.128637 12.173 15.437 -1.843
92 4 3 0.152509 10.578 13.871 -1.434
93 5 1 -0.693636 3.148 11.667 3.908
94 5 2 0.534823 4.145 10.764 3.62
95 5 2 -0.002672 5.394 10.87 4.275
96 5 2 -0.20686 5.648 11.87 5.183
97 5 2 -0.002672 4.638 12.779 5.431
98 5 2 0.534823 3.386 12.67 4.78
99 5 2 -0.274751 3.94 9.742 2.69
100 5 2 -0.100851 4.943 8.837 2.412
101 5 2 -0.140261 6.146 8.914 3.051
102 5 2 -0.187088 6.44 9.915 3.972
103 5 2 -0.187088 4.874 13.879 6.347
104 5 2 -0.140261 3.869 14.767 6.592
105 5 2 -0.100851 2.604 14.62 5.944
106 5 2 -0.274751 2.388 13.66 5.1
107 5 3 0.151995 6.488 11.935 5.624
108 5 3 0.152509 3.103 9.668 2.247
109 5 3 0.128637 4.796 8.154 1.769
110 5 3 0.130168 6.808 8.259 2.861
111 5 3 0.133735 7.293 9.971 4.386
112 5 3 0.133735 5.719 13.98 6.77
113 5 3 0.130168 4.01 15.486 7.197
114 5 3 0.128637 1.908 15.237 6.135
115 5 3 0.152509 1.539 13.608 4.675
116 6 1 -0.693636 0.518 1.977 9.273
117 6 2 0.534823 1.514 2.88 8.985
118 6 2 -0.002672 2.764 2.774 9.639
119 6 2 -0.20686 3.018 1.774 10.548
120 6 2 -0.002672 2.008 0.865 10.796
121 6 2 0.534823 0.756 0.974 10.145
122 6 2 -0.274751 1.31 3.902 8.055
123 6 2 -0.100851 2.313 4.807 7.777
124 6 2 -0.140261 3.516 4.73 8.416
125 6 2 -0.187088 3.809 3.729 9.337
126 6 2 -0.187088 2.243 -0.235 11.711
127 6 2 -0.140261 1.238 -1.123 11.957
128 6 2 -0.100851 -0.027 -0.976 11.309
129 6 2 -0.274751 -0.243 -0.016 10.465
130 6 3 0.151995 3.857 1.709 10.989
131 6 3 0.152509 0.473 3.976 7.611
132 6 3 0.128637 2.166 5.49 7.134
133 6 3 0.130168 4.178 5.385 8.225
134 6 3 0.133735 4.662 3.673 9.751
135 6 3 0.133735 3.089 -0.336 12.134
136 6 3 0.130168 1.38 -1.842 12.562
137 6 3 0.128637 -0.723 -1.593 11.5
138 6 3 0.152509 -1.091 0.036 10.039
139 7 1 -0.693636 -3.143 4.845 3.908
140 7 2 0.534823 -2.146 3.942 3.62
141 7 2 -0.002672 -0.897 4.048 4.275
142 7 2 -0.20686 -0.643 5.048 5.183
143 7 2 -0.002672 -1.653 5.957 5.431
144 7 2 0.534823 -2.905 5.848 4.78
145 7 2 -0.274751 -2.351 2.92 2.69
146 7 2 -0.100851 -1.348 2.015 2.412
147 7 2 -0.140261 -0.145 2.092 3.051
148 7 2 -0.187088 0.149 3.093 3.972
149 7 2 -0.187088 -1.417 7.057 6.347
150 7 2 -0.140261 -2.422 7.945 6.592
151 7 2 -0.100851 -3.687 7.798 5.944
152 7 2 -0.274751 -3.903 6.838 5.1
153 7 3 0.151995 0.197 5.113 5.624
154 7 3 0.152509 -3.188 2.846 2.247
155 7 3 0.128637 -1.495 1.332 1.769
156 7 3 0.130168 0.517 1.437 2.861
157 7 3 0.133735 1.002 3.149 4.386
158 7 3 0.133735 -0.572 7.158 6.77
159 7 3 0.130168 -2.281 8.664 7.197
160 7 3 0.128637 -4.383 8.415 6.135
161 7 3 0.152509 -4.752 6.786 4.675
162 8 1 -0.693636 -5.773 8.799 9.273
163 8 2 0.534823 -4.777 9.702 8.985
164 8 2 -0.002672 -3.527 9.596 9.639
165 8 2 -0.20686 -3.273 8.596 10.548
166 8 2 -0.002672 -4.283 7.687 10.796
167 8 2 0.534823 -5.535 7.796 10.145
168 8 2 -0.274751 -4.981 10.724 8.055
169 8 2 -0.100851 -3.978 11.629 7.777
170 8 2 -0.140261 -2.775 11.552 8.416
171 8 2 -0.187088 -2.482 10.551 9.337
172 8 2 -0.187088 -4.048 6.587 11.711
173 8 2 -0.140261 -5.053 5.699 11.957
174 8 2 -0.100851 -6.318 5.846 11.309
175 8 2 -0.274751 -6.534 6.806 10.465
176 8 3 0.151995 -2.434 8.531 10.989
177 8 3 0.152509 -5.818 10.798 7.611
178 8 3 0.128637 -4.125 12.312 7.134
179 8 3 0.130168 -2.113 12.207 8.225
180 8 3 0.133735 -1.629 10.495 9.751
181 8 3 0.133735 -3.202 6.486 12.134
182 8 3 0.130168 -4.911 4.98 12.562
183 8 3 0.128637 -7.014 5.229 11.5
184 8 3 0.152509 -7.382 6.858 10.039

Bonds

1 3 4 15
2 3 7 16
3 3 8 17
4 3 9 18
5 3 10 19
6 3 11 20
7 3 12 21
8 3 13 22
9 3 14 23
10 3 27 38
11 3 30 39
12 3 31 40
13 3 32 41
14 3 33 42
15 3 34 43
16 3 35 44
17 3 36 45
18 3 37 46
19 3 50 61
20 3 53 62
21 3 54 63
22 3 55 64
23 3 56 65
24 3 57 66
25 3 58 67
26 3 59 68
27 3 60 69
28 3 73 84
29 3 76 85
30 3 77 86
31 3 78 87
32 3 79 88
33 3 80 89
34 3 81 90
35 3 82 91
36 3 83 92
37 3 96 107
38 3 99 108
39 3 100 109
40 3 101 110
41 3 102 111
42 3 103 112
43 3 104 113
44 3 105 114
45 3 106 115
46 3 119 130
47 3 122 131
48 3 123 132
49 3 124 133
50 3 125 134
51 3 126 135
52 3 127 136
53 3 128 137
54 3 129 138
55 3 142 153
56 3 145 154
57 3 146 155
58 3 147 156
59 3 148 157
60 3 149 158
61 3 150 159
62 3 151 160
63 3 152 161
64 3 165 176
65 3 168 177
66 3 169 178
67 3 170 179
68 3 171 180
69 3 172 181
70 3 173 182
71 3 174 183
72 3 175 184
73 1 1 2
74 1 1 6
75 1 24 25
76 1 24 29
77 1 47 52
78 1 47 48
79 1 70 71
80 1 70 75
81 1 93 94
82 1 93 98
83 1 116 121
84 1 116 117
85 1 139 140
86 1 139 144
87 1 162 163
88 1 162 167
89 2 2 7
90 2 2 3
91 2 3 4
92 2 3 10
93 2 4 5
94 2 5 6
95 2 5 11
96 2 6 14
97 2 7 8
98 2 8 9
99 2 9 10
100 2 11 12
101 2 12 13
102 2 13 14
103 2 25 30
104 2 25 26
105 2 26 33
106 2 26 27
107 2 27 28
108 2 28 29
109 2 28 34
110 2 29 37
111 2 30 31
112 2 31 32
113 2 32 33
114 2 34 35
115 2 35 36
116 2 36 37
117 2 48 53
118 2 48 49
119 2 49 50
120 2 49 56
121 2 50 51
122 2 51 57
123 2 51 52
124 2 52 60
125 2 53 54
126 2 54 55
127 2 55 56
128 2 57 58
129 2 58 59
130 2 59 60
131 2 71 76
132 2 71 72
133 2 72 73
134 2 72 79
135 2 73 74
136 2 74 80
137 2 74 75
138 2 75 83
139 2 76 77
140 2 77 78
141 2 78 79
142 2 80 81
143 2 81 82
144 2 82 83
145 2 94 99
146 2 94 95
147 2 95 96
148 2 95 102
149 2 96 97
150 2 97 98
151 2 97 103
152 2 98 106
153 2 99 100
154 2 100 101
155 2 101 102
156 2 103 104
157 2 104 105
158 2 105 106
159 2 117 122
160 2 117 118
161 2 118 119
162 2 118 125
163 2 119 120
164 2 120 121
165 2 120 126
166 2 121 129
167 2 122 123
168 2 123 124
169 2 124 125
170 2 126 127
171 2 127 128
172 2 128 129
173 2 140 145
174 2 140 141
175 2 141 148
176 2 141 142
177 2 142 143
178 2 143 144
179 2 143 149
180 2 144 152
181 2 145 146
182 2 146 147
183 2 147 148
184 2 149 150
185 2 150 151
186 2 151 152
187 2 163 168
188 2 163 164
189 2 164 165
190 2 164 171
191 2 165 166
192 2 166 167
193 2 166 172
194 2 167 175
195 2 168 169
196 2 169 170
197 2 170 171
198 2 172 173
199 2 173 174
200 2 174 175

Angles

1 1 1 2 3
2 1 1 6 5
3 1 1 2 7
4 1 1 6 14
5 1 24 25 26
6 1 24 29 28
7 1 24 25 30
8 1 24 29 37
9 1 47 48 49
10 1 47 52 51
11 1 47 48 53
12 1 47 52 60
13 1 70 71 72
14 1 70 75 74
15 1 70 71 76
16 1 70 75 83
17 1 93 94 95
18 1 93 98 97
19 1 93 94 99
20 1 93 98 106
21 1 116 117 118
22 1 116 121 120
23 1 116 117 122
24 1 116 121 129
25 1 139 140 141
26 1 139 144 143
27 1 139 140 145
28 1 139 144 152
29 1 162 163 164
30 1 162 167 166
31 1 162 163 168
32 1 162 167 175
33 2 2 7 16
34 2 3 4 15
35 2 3 10 19
36 2 5 4 15
37 2 5 11 20
38 2 6 14 23
39 2 7 8 17
40 2 8 7 16
41 2 8 9 18
42 2 9 8 17
43 2 9 10 19
44 2 10 9 18
45 2 11 12 21
46 2 12 11 20
47 2 12 13 22
48 2 13 12 21
49 2 13 14 23
50 2 14 13 22
51 2 25 30 39
52 2 26 33 42
53 2 26 27 38
54 2 28 27 38
55 2 28 34 43
56 2 29 37 46
57 2 30 31 40
58 2 31 30 39
59 2 31 32 41
60 2 32 31 40
61 2 32 33 42
62 2 33 32 41
63 2 34 35 44
64 2 35 34 43
65 2 35 36 45
66 2 36 35 44
67 2 36 37 46
68 2 37 36 45
69 2 48 53 62
70 2 49 50 61
71 2 49 56 65
72 2 51 50 61
73 2 51 57 66
74 2 52 60 69
75 2 53 54 63
76 2 54 53 62
77 2 54 55 64
78 2 55 54 63
79 2 55 56 65
80 2 56 55 64
81 2 57 58 67
82 2 58 57 66
83 2 58 59 68
84 2 59 58 67
85 2 59 60 69
86 2 60 59 68
87 2 71 76 85
88 2 72 73 84
89 2 72 79 88
90 2 74 73 84
91 2 74 80 89
92 2 75 83 92
93 2 76 77 86
94 2 77 76 85
95 2 77 78 87
96 2 78 77 86
97 2 78 79 88
98 2 79 78 87
99 2 80 81 90
100 2 81 80 89
101 2 81 82 91
102 2 82 81 90
103 2 82 83 92
104 2 83 82 91
105 2 94 99 108
106 2 95 96 107
107 2 95 102 111
108 2 97 96 107
109 2 97 103 112
110 2 98 106 115
111 2 99 100 109
112 2 100 99 108
113 2 100 101 110
114 2 101 100 109
115 2 101 102 111
116 2 102 101 110
117 2 103 104 113
118 2 104 103 112
119 2 104 105 114
120 2 105 104 113
121 2 105 106 115
122 2 106 105 114
123 2 117 122 131
124 2 118 119 130
125 2 118 125 134
126 2 120 119 130
127 2 120 126 135
128 2 121 129 138
129 2 122 123 132
130 2 123 122 131
131 2 123 124 133
132 2 124 123 132
133 2 124 125 134
134 2 125 124 133
135 2 126 127 136
136 2 127 126 135
137 2 127 128 137
138 2 128 127 136
139 2 128 129 138
140 2 129 128 137
141 2 140 145 154
142 2 141 148 157
143 2 141 142 153
144 2 143 142 153
145 2 143 149 158
146 2 144 152 161
147 2 145 146 155
148 2 146 145 154
149 2 146 147 156
150 2 147 146 155
151 2 147 148 157
152 2 148 147 156
153 2 149 150 159
154 2 150 149 158
155 2 150 151 160
156 2 151 150 159
157 2 151 152 161
158 2 152 151 160
159 2 163 168 177
160 2 164 165 176
161 2 164 171 180
162 2 166 165 176
163 2 166 172 181
164 2 167 175 184
165 2 168 169 178
166 2 169 168 177
167 2 169 170 179
168 2 170 169 178
169 2 170 171 180
170 2 171 170 179
171 2 172 173 182
172 2 173 172 181
173 2 173 174 183
174 2 174 173 182
175 2 174 175 184
176 2 175 174 183
177 3 2 7 8
178 3 2 3 4
179 3 2 3 10
180 3 3 2 7
181 3 3 4 5
182 3 3 10 9
183 3 4 3 10
184 3 4 5 6
185 3 4 5 11
186 3 5 6 14
187 3 5 11 12
188 3 6 5 11
189 3 6 14 13
190 3 7 8 9
191 3 8 9 10
192 3 11 12 13
193 3 12 13 14
194 3 25 30 31
195 3 25 26 33
196 3 25 26 27
197 3 26 25 30
198 3 26 33 32
199 3 26 27 28
200 3 27 26 33
201 3 27 28 29
202 3 27 28 34
203 3 28 29 37
204 3 28 34 35
205 3 29 28 34
206 3 29 37 36
207 3 30 31 32
208 3 31 32 33
209 3 34 35 36
210 3 35 36 37
211 3 48 53 54
212 3 48 49 50
213 3 48 49 56
214 3 49 48 53
215 3 49 50 51
216 3 49 56 55
217 3 50 49 56
218 3 50 51 57
219 3 50 51 52
220 3 51 57 58
221 3 51 52 60
222 3 52 51 57
223 3 52 60 59
224 3 53 54 55
225 3 54 55 56
226 3 57 58 59
227 3 58 59 60
228 3 71 76 77
229 3 71 72 73
230 3 71 72 79
231 3 72 71 76
232 3 72 73 74
233 3 72 79 78
234 3 73 72 79
235 3 73 74 80
236 3 73 74 75
237 3 74 80 81
238 3 74 75 83
239 3 75 74 80
240 3 75 83 82
241 3 76 77 78
242 3 77 78 79
243 3 80 81 82
244 3 81 82 83
245 3 94 99 100
246 3 94 95 96
247 3 94 95 102
248 3 95 94 99
249 3 95 96 97
250 3 95 102 101
251 3 96 95 102
252 3 96 97 98
253 3 96 97 103
254 3 97 98 106
255 3 97 103 104
256 3 98 97 103
257 3 98 106 105
258 3 99 100 101
259 3 100 101 102
260 3 103 104 105
261 3 104 105 106
262 3 117 122 123
263 3 117 118 119
264 3 117 118 125
265 3 118 117 122
266 3 118 119 120
267 3 118 125 124
268 3 119 118 125
269 3 119 120 121
270 3 119 120 126
271 3 120 121 129
272 3 120 126 127
273 3 121 120 126
274 3 121 129 128
275 3 122 123 124
276 3 123 124 125
277 3 126 127 128
278 3 127 128 129
279 3 140 145 146
280 3 140 141 148
281 3 140 141 142
282 3 141 140 145
283 3 141 148 147
284 3 141 142 143
285 3 142 141 148
286 3 142 143 144
287 3 142 143 149
288 3 143 144 152
289 3 143 149 150
290 3 144 143 149
291 3 144 152 151
292 3 145 146 147
293 3 146 147 148
294 3 149 150 151
295 3 150 151 152
296 3 163 168 169
297 3 163 164 165
298 3 163 164 171
299 3 164 163 168
300 3 164 165 166
301 3 164 171 170
302 3 165 164 171
303 3 165 166 167
304 3 165 166 172
305 3 166 167 175
306 3 166 172 173
307 3 167 166 172
308 3 167 175 174
309 3 168 169 170
310 3 169 170 171
311 3 172 173 174
312 3 173 174 175
313 4 2 1 6
314 4 25 24 29
315 4 48 47 52
316 4 71 70 75
317 4 94 93 98
318 4 117 116 121
319 4 140 139 144
320 4 163 162 167

Dihedrals

1 1 1 2 7 16
2 1 1 6 14 23
3 1 24 25 30 39
4 1 24 29 37 46
5 1 47 48 53 62
6 1 47 52 60 69
7 1 70 71 76 85
8 1 70 75 83 92
9 1 93 94 99 108
10 1 93 98 106 115
11 1 116 117 122 131
12 1 116 121 129 138
13 1 139 140 145 154
14 1 139 144 152 161
15 1 162 163 168 177
16 1 162 167 175 184
17 2 1 2 3 4
18 2 1 6 5 4
19 2 1 2 7 8
20 2 1 2 3 10
21 2 1 6 5 11
22 2 1 6 14 13
23 2 24 25 26 27
24 2 24 29 28 27
25 2 24 25 30 31
26 2 24 25 26 33
27 2 24 29 28 34
28 2 24 29 37 36
29 2 47 48 49 50
30 2 47 52 51 50
31 2 47 48 53 54
32 2 47 48 49 56
33 2 47 52 51 57
34 2 47 52 60 59
35 2 70 71 72 73
36 2 70 75 74 73
37 2 70 71 76 77
38 2 70 71 72 79
39 2 70 75 74 80
40 2 70 75 83 82
41 2 93 94 95 96
42 2 93 98 97 96
43 2 93 94 99 100
44 2 93 94 95 102
45 2 93 98 97 103
46 2 93 98 106 105
47 2 116 117 118 119
48 2 116 121 120 119
49 2 116 117 122 123
50 2 116 117 118 125
51 2 116 121 120 126
52 2 116 121 129 128
53 2 139 140 141 142
54 2 139 144 143 142
55 2 139 140 145 146
56 2 139 140 141 148
57 2 139 144 143 149
58 2 139 144 152 151
59 2 162 163 164 165
60 2 162 167 166 165
61 2 162 163 168 169
62 2 162 163 164 171
63 2 162 167 166 172
64 2 162 167 175 174
65 3 2 7 8 17
66 3 2 3 4 15
67 3 2 3 10 19
68 3 3 2 7 16
69 3 3 10 9 18
70 3 4 3 10 19
71 3 4 5 11 20
72 3 5 6 14 23
73 3 5 11 12 21
74 3 6 5 4 15
75 3 6 5 11 20
76 3 6 14 13 22
77 3 7 8 9 18
78 3 8 9 10 19
79 3 9 8 7 16
80 3 10 3 4 15
81 3 10 9 8 17
82 3 11 5 4 15
83 3 11 12 13 22
84 3 12 13 14 23
85 3 13 12 11 20
86 3 14 13 12 21
87 3 25 30 31 40
88 3 25 26 33 42
89 3 25 26 27 38
90 3 26 25 30 39
91 3 26 33 32 41
92 3 27 26 33 42
93 3 27 28 34 43
94 3 28 29 37 46
95 3 28 34 35 44
96 3 29 28 27 38
97 3 29 28 34 43
98 3 29 37 36 45
99 3 30 31 32 41
100 3 31 32 33 42
101 3 32 31 30 39
102 3 33 26 27 38
103 3 33 32 31 40
104 3 34 28 27 38
105 3 34 35 36 45
106 3 35 36 37 46
107 3 36 35 34 43
108 3 37 36 35 44
109 3 48 53 54 63
110 3 48 49 50 61
111 3 48 49 56 65
112 3 49 48 53 62
113 3 49 56 55 64
114 3 50 49 56 65
115 3 50 51 57 66
116 3 51 57 58 67
117 3 51 52 60 69
118 3 52 51 50 61
119 3 52 51 57 66
120 3 52 60 59 68
121 3 53 54 55 64
122 3 54 55 56 65
123 3 55 54 53 62
124 3 56 49 50 61
125 3 56 55 54 63
126 3 57 51 50 61
127 3 57 58 59 68
128 3 58 59 60 69
129 3 59 58 57 66
130 3 60 59 58 67
131 3 71 76 77 86
132 3 71 72 73 84
133 3 71 72 79 88
134 3 72 71 76 85
135 3 72 79 78 87
136 3 73 72 79 88
137 3 73 74 80 89
138 3 74 80 81 90
139 3 74 75 83 92
140 3 75 74 73 84
141 3 75 74 80 89
142 3 75 83 82 91
143 3 76 77 78 87
144 3 77 78 79 88
145 3 78 77 76 85
146 3 79 72 73 84
147 3 79 78 77 86
148 3 80 74 73 84
149 3 80 81 82 91
150 3 81 82 83 92
151 3 82 81 80 89
152 3 83 82 81 90
153 3 94 99 100 109
154 3 94 95 96 107
155 3 94 95 102 111
156 3 95 94 99 108
157 3 95 102 101 110
158 3 96 95 102 111
159 3 96 97 103 112
160 3 97 98 106 115
161 3 97 103 104 113
162 3 98 97 96 107
163 3 98 97 103 112
164 3 98 106 105 114
165 3 99 100 101 110
166 3 100 101 102 111
167 3 101 100 99 108
168 3 102 95 96 107
169 3 102 101 100 109
170 3 103 97 96 107
171 3 103 104 105 114
172 3 104 105 106 115
173 3 105 104 103 112
174 3 106 105 104 113
175 3 117 122 123 132
176 3 117 118 119 130
177 3 117 118 125 134
178 3 118 117 122 131
179 3 118 125 124 133
180 3 119 118 125 134
181 3 119 120 126 135
182 3 120 121 129 138
183 3 120 126 127 136
184 3 121 120 119 130
185 3 121 120 126 135
186 3 121 129 128 137
187 3 122 123 124 133
188 3 123 124 125 134
189 3 124 123 122 131
190 3 125 118 119 130
191 3 125 124 123 132
192 3 126 120 119 130
193 3 126 127 128 137
194 3 127 128 129 138
195 3 128 127 126 135
196 3 129 128 127 136
197 3 140 145 146 155
198 3 140 141 148 157
199 3 140 141 142 153
200 3 141 140 145 154
201 3 141 148 147 156
202 3 142 141 148 157
203 3 142 143 149 158
204 3 143 144 152 161
205 3 143 149 150 159
206 3 144 143 142 153
207 3 144 143 149 158
208 3 144 152 151 160
209 3 145 146 147 156
210 3 146 147 148 157
211 3 147 146 145 154
212 3 148 141 142 153
213 3 148 147 146 155
214 3 149 143 142 153
215 3 149 150 151 160
216 3 150 151 152 161
217 3 151 150 149 158
218 3 152 151 150 159
219 3 163 168 169 178
220 3 163 164 165 176
221 3 163 164 171 180
222 3 164 163 168 177
223 3 164 171 170 179
224 3 165 164 171 180
225 3 165 166 172 181
226 3 166 167 175 184
227 3 166 172 173 182
228 3 167 166 165 176
229 3 167 166 172 181
230 3 167 175 174 183
231 3 168 169 170 179
232 3 169 170 171 180
233 3 170 169 168 177
234 3 171 164 165 176
235 3 171 170 169 178
236 3 172 166 165 176
237 3 172 173 174 183
238 3 173 174 175 184
239 3 174 173 172 181
240 3 175 174 173 182
241 4 2 7 8 9
242 4 2 3 4 5
243 4 2 3 10 9
244 4 3 2 7 8
245 4 3 4 5 6
246 4 3 4 5 11
247 4 3 10 9 8
248 4 4 3 2 7
249 4 4 3 10 9
250 4 4 5 6 14
251 4 4 5 11 12
252 4 5 4 3 10
253 4 5 6 14 13
254 4 5 11 12 13
255 4 6 5 11 12
256 4 6 14 13 12
257 4 7 2 3 10
258 4 7 8 9 10
259 4 11 5 6 14
260 4 11 12 13 14
261 4 25 30 31 32
262 4 25 26 33 32
263 4 25 26 27 28
264 4 26 25 30 31
265 4 26 33 32 31
266 4 26 27 28 29
267 4 26 27 28 34
268 4 27 26 25 30
269 4 27 26 33 32
270 4 27 28 29 37
271 4 27 28 34 35
272 4 28 27 26 33
273 4 28 29 37 36
274 4 28 34 35 36
275 4 29 28 34 35
276 4 29 37 36 35
277 4 30 25 26 33
278 4 30 31 32 33
279 4 34 28 29 37
280 4 34 35 36 37
281 4 48 53 54 55
282 4 48 49 50 51
283 4 48 49 56 55
284 4 49 48 53 54
285 4 49 50 51 57
286 4 49 50 51 52
287 4 49 56 55 54
288 4 50 49 48 53
289 4 50 49 56 55
290 4 50 51 57 58
291 4 50 51 52 60
292 4 51 50 49 56
293 4 51 57 58 59
294 4 51 52 60 59
295 4 52 51 57 58
296 4 52 60 59 58
297 4 53 48 49 56
298 4 53 54 55 56
299 4 57 51 52 60
300 4 57 58 59 60
301 4 71 76 77 78
302 4 71 72 73 74
303 4 71 72 79 78
304 4 72 71 76 77
305 4 72 73 74 80
306 4 72 73 74 75
307 4 72 79 78 77
308 4 73 72 71 76
309 4 73 72 79 78
310 4 73 74 80 81
311 4 73 74 75 83
312 4 74 73 72 79
313 4 74 80 81 82
314 4 74 75 83 82
315 4 75 74 80 81
316 4 75 83 82 81
317 4 76 71 72 79
318 4 76 77 78 79
319 4 80 74 75 83
320 4 80 81 82 83
321 4 94 99 100 101
322 4 94 95 96 97
323 4 94 95 102 101
324 4 95 94 99 100
325 4 95 96 97 98
326 4 95 96 97 103
327 4 95 102 101 100
328 4 96 95 94 99
329 4 96 95 102 101
330 4 96 97 98 106
331 4 96 97 103 104
332 4 97 96 95 102
333 4 97 98 106 105
334 4 97 103 104 105
335 4 98 97 103 104
336 4 98 106 105 104
337 4 99 94 95 102
338 4 99 100 101 102
339 4 103 97 98 106
340 4 103 104 105 106
341 4 117 122 123 124
342 4 117 118 119 120
343 4 117 118 125 124
344 4 118 117 122 123
345 4 118 119 120 121
346 4 118 119 120 126
347 4 118 125 124 123
348 4 119 118 117 122
349 4 119 118 125 124
350 4 119 120 121 129
351 4 119 120 126 127
352 4 120 119 118 125
353 4 120 121 129 128
354 4 120 126 127 128
355 4 121 120 126 127
356 4 121 129 128 127
357 4 122 117 118 125
358 4 122 123 124 125
359 4 126 120 121 129
360 4 126 127 128 129
361 4 140 145 146 147
362 4 140 141 148 147
363 4 140 141 142 143
364 4 141 140 145 146
365 4 141 148 147 146
366 4 141 142 143 144
367 4 141 142 143 149
368 4 142 141 140 145
369 4 142 141 148 147
370 4 142 143 144 152
371 4 142 143 149 150
372 4 143 142 141 148
373 4 143 144 152 151
374 4 143 149 150 151
375 4 144 143 149 150
376 4 144 152 151 150
377 4 145 140 141 148
378 4 145 146 147 148
379 4 149 143 144 152
380 4 149 150 151 152
381 4 163 168 169 170
382 4 163 164 165 166
383 4 163 164 171 170
384 4 164 163 168 169
385 4 164 165 166 167
386 4 164 165 166 172
387 4 164 171 170 169
388 4 165 164 163 168
389 4 165 164 171 170
390 4 165 166 167 175
391 4 165 166 172 173
392 4 166 165 164 171
393 4 166 167 175 174
394 4 166 172 173 174
395 4 167 166 172 173
396 4 167 175 174 173
397 4 168 163 164 171
398 4 168 169 170 171
399 4 172 166 167 175
400 4 172 173 174 175
401 5 16 7 8 17
402 5 17 8 9 18
403 5 18 9 10 19
404 5 20 11 12 21
405 5 21 12 13 22
406 5 22 13 14 23
407 5 39 30 31 40
408 5 40 31 32 41
409 5 41 32 33 42
410 5 43 34 35 44
411 5 44 35 36 45
412 5 45 36 37 46
413 5 62 53 54 63
414 5 63 54 55 64
415 5 64 55 56 65
416 5 66 57 58 67
417 5 67 58 59 68
418 5 68 59 60 69
419 5 85 76 77 86
420 5 86 77 78 87
421 5 87 78 79 88
422 5 89 80 81 90
423 5 90 81 82 91
424 5 91 82 83 92
425 5 108 99 100 109
426 5 109 100 101 110
427 5 110 101 102 111
428 5 112 103 104 113
429 5 113 104 105 114
430 5 114 105 106 115
431 5 131 122 123 132
432 5 132 123 124 133
433 5 133 124 125 134
434 5 135 126 127 136
435 5 136 127 128 137
436 5 137 128 129 138
437 5 154 145 146 155
438 5 155 146 147 156
439 5 156 147 148 157
440 5 158 149 150 159
441 5 159 150 151 160
442 5 160 151 152 161
443 5 177 168 169 178
444 5 178 169 170 179
445 5 179 170 171 180
446 5 181 172 173 182
447 5 182 173 174 183
448 5 183 174 175 184
449 6 3 2 1 6
450 6 2 1 6 5
451 6 6 1 2 7
452 6 2 1 6 14
453 6 26 25 24 29
454 6 25 24 29 28
455 6 29 24 25 30
456 6 25 24 29 37
457 6 49 48 47 52
458 6 48 47 52 51
459 6 52 47 48 53
460 6 48 47 52 60
461 6 72 71 70 75
462 6 71 70 75 74
463 6 75 70 71 76
464 6 71 70 75 83
465 6 95 94 93 98
466 6 94 93 98 97
467 6 98 93 94 99
468 6 94 93 98 106
469 6 118 117 116 121
470 6 117 116 121 120
471 6 121 116 117 122
472 6 117 116 121 129
473 6 141 140 139 144
474 6 140 139 144 143
475 6 144 139 140 145
476 6 140 139 144 152
477 6 164 163 162 167
478 6 163 162 167 166
479 6 167 162 163 168
480 6 163 162 167 175

Impropers

1 1 2 4 3 10
2 1 4 6 5 11
3 1 25 27 26 33
4 1 27 29 28 34
5 1 48 50 49 56
6 1 50 52 51 57
7 1 71 73 72 79
8 1 73 75 74 80
9 1 94 96 95 102
10 1 96 98 97 103
11 1 117 119 118 125
12 1 119 121 120 126
13 1 140 142 141 148
14 1 142 144 143 149
15 1 163 165 164 171
16 1 165 167 166 172
17 2 2 8 7 16
18 2 3 5 4 15
19 2 3 9 10 19
20 2 5 12 11 20
21 2 6 13 14 23
22 2 7 9 8 17
23 2 8 10 9 18
24 2 11 13 12 21
25 2 12 14 13 22
26 2 25 31 30 39
27 2 26 32 33 42
28 2 26 28 27 38
29 2 28 35 34 43
30 2 29 36 37 46
31 2 30 32 31 40
32 2 31 33 32 41
33 2 34 36 35 44
34 2 35 37 36 45
35 2 48 54 53 62
36 2 49 51 50 61
37 2 49 55 56 65
38 2 51 58 57 66
39 2 52 59 60 69
40 2 53 55 54 63
41 2 54 56 55 64
42 2 57 59 58 67
43 2 58 60 59 68
44 2 71 77 76 85
45 2 72 74 73 84
46 2 72 78 79 88
47 2 74 81 80 89
48 2 75 82 83 92
49 2 76 78 77 86
50 2 77 79 78 87
51 2 80 82 81 90
52 2 81 83 82 91
53 2 94 100 99 108
54 2 95 97 96 107
55 2 95 101 102 111
56 2 97 104 103 112
57 2 98 105 106 115
58 2 99 101 100 109
59 2 100 102 101 110
60 2 103 105 104 113
61 2 104 106 105 114
62 2 117 123 122 131
63 2 118 120 119 130
64 2 118 124 125 134
65 2 120 127 126 135
66 2 121 128 129 138
67 2 122 124 123 132
68 2 123 125 124 133
69 2 126 128 127 136
70 2 127 129 128 137
71 2 140 146 145 154
72 2 141 147 148 157
73 2 141 143 142 153
74 2 143 150 149 158
75 2 144 151 152 161
76 2 145 147 146 155
77 2 146 148 147 156
78 2 149 151 150 159
79 2 150 152 151 160
80 2 163 169 168 177
81 2 164 166 165 176
82 2 164 170 171 180
83 2 166 173 172 181
84 2 167 174 175 184
85 2 168 170 169 178
86 2 169 171 170 179
87 2 172 174 173 182
88 2 173 175 174 183
89 3 1 3 2 7
90 3 1 5 6 14
91 3 24 26 25 30
92 3 24 28 29 37
93 3 47 49 48 53
94 3 47 51 52 60
95 3 70 72 71 76
96 3 70 74 75 83
97 3 93 95 94 99
98 3 93 97 98 106
99 3 116 118 117 122
100 3 116 120 121 129
101 3 139 141 140 145
102 3 139 143 144 152
103 3 162 164 163 168
104 3 162 166 167 175

