LAMMPS Description

     276  atoms
     300  bonds
     480  angles
     720  dihedrals
     156  impropers

     3  atom types
     3  bond types
     4  angle types
     6  dihedral types
     3  improper types

  0.0 6.1788 xlo xhi
  0.0 15.7185 ylo yhi
  0.0 29.312 zlo zhi

Masses

1 14.01  # nb
2 12.01  # ca
3 1.008  # ha

Atoms  # full

1 1 1 -0.693636 7.344 13.667 6.572
2 1 2 0.534823 6.404 12.801 6.954
3 1 2 -0.002672 5.141 12.694 6.313
4 1 2 -0.20686 4.91 13.52 5.228
5 1 2 -0.002672 5.853 14.425 4.81
6 1 2 0.534823 7.08 14.468 5.524
7 1 2 -0.274751 6.658 11.946 8.049
8 1 2 -0.100851 5.74 11.067 8.481
9 1 2 -0.140261 4.49 10.975 7.862
10 1 2 -0.187088 4.195 11.751 6.809
11 1 2 -0.187088 5.672 15.315 3.716
12 1 2 -0.140261 6.637 16.178 3.356
13 1 2 -0.100851 7.853 16.21 4.067
14 1 2 -0.274751 8.061 15.394 5.116
15 1 3 0.151995 4.1 13.46 4.772
16 1 3 0.152509 7.48 11.993 8.48
17 1 3 0.128637 5.938 10.514 9.201
18 1 3 0.130168 3.859 10.371 8.184
19 1 3 0.133735 3.365 11.673 6.396
20 1 3 0.133735 4.873 15.299 3.242
21 1 3 0.130168 6.502 16.753 2.638
22 1 3 0.128637 8.521 16.805 3.808
23 1 3 0.152509 8.867 15.442 5.581
24 2 1 -0.693636 1.925 2.051 21.228
25 2 2 0.534823 2.864 2.918 21.61
26 2 2 -0.002672 4.127 3.025 20.969
27 2 2 -0.20686 4.359 2.199 19.884
28 2 2 -0.002672 3.416 1.294 19.466
29 2 2 0.534823 2.189 1.25 20.18
30 2 2 -0.274751 2.611 3.772 22.705
31 2 2 -0.100851 3.528 4.651 23.137
32 2 2 -0.140261 4.778 4.744 22.518
33 2 2 -0.187088 5.073 3.968 21.465
34 2 2 -0.187088 3.596 0.404 18.372
35 2 2 -0.140261 2.632 -0.459 18.012
36 2 2 -0.100851 1.415 -0.492 18.723
37 2 2 -0.274751 1.207 0.325 19.772
38 2 3 0.151995 5.168 2.259 19.428
39 2 3 0.152509 1.788 3.725 23.136
40 2 3 0.128637 3.33 5.204 23.857
41 2 3 0.130168 5.41 5.347 22.84
42 2 3 0.133735 5.903 4.046 21.052
43 2 3 0.133735 4.396 0.42 17.898
44 2 3 0.130168 2.766 -1.034 17.294
45 2 3 0.128637 0.748 -1.086 18.464
46 2 3 0.152509 0.402 0.277 20.237
47 3 1 -0.693636 4.254 9.911 22.74
48 3 2 0.534823 3.315 10.777 22.358
49 3 2 -0.002672 2.052 10.884 22.999
50 3 2 -0.20686 1.82 10.058 24.084
51 3 2 -0.002672 2.763 9.153 24.502
52 3 2 0.534823 3.99 9.109 23.788
53 3 2 -0.274751 3.568 11.632 21.263
54 3 2 -0.100851 2.651 12.51 20.831
55 3 2 -0.140261 1.401 12.603 21.45
56 3 2 -0.187088 1.106 11.827 22.503
57 3 2 -0.187088 2.583 8.263 25.596
58 3 2 -0.140261 3.547 7.4 25.956
59 3 2 -0.100851 4.764 7.367 25.245
60 3 2 -0.274751 4.972 8.184 24.196
61 3 3 0.151995 1.011 10.118 24.54
62 3 3 0.152509 4.391 11.585 20.832
63 3 3 0.128637 2.849 13.064 20.111
64 3 3 0.130168 0.769 13.207 21.128
65 3 3 0.133735 0.276 11.905 22.916
66 3 3 0.133735 1.783 8.279 26.07
67 3 3 0.130168 3.413 6.825 26.674
68 3 3 0.128637 5.431 6.773 25.504
69 3 3 0.152509 5.777 8.136 23.731
70 4 1 -0.693636 -1.165 5.808 8.084
71 4 2 0.534823 -0.226 4.941 7.702
72 4 2 -0.002672 1.037 4.835 8.343
73 4 2 -0.20686 1.269 5.66 9.428
74 4 2 -0.002672 0.326 6.565 9.846
75 4 2 0.534823 -0.901 6.609 9.132
76 4 2 -0.274751 -0.479 4.087 6.607
77 4 2 -0.100851 0.439 3.208 6.175
78 4 2 -0.140261 1.689 3.115 6.794
79 4 2 -0.187088 1.983 3.892 7.847
80 4 2 -0.187088 0.507 7.455 10.94
81 4 2 -0.140261 -0.458 8.319 11.3
82 4 2 -0.100851 -1.674 8.351 10.589
83 4 2 -0.274751 -1.883 7.535 9.54
84 4 3 0.151995 2.079 5.601 9.884
85 4 3 0.152509 -1.301 4.134 6.176
86 4 3 0.128637 0.24 2.655 5.455
87 4 3 0.130168 2.32 2.512 6.472
88 4 3 0.133735 2.814 3.813 8.26
89 4 3 0.133735 1.306 7.44 11.414
90 4 3 0.130168 -0.323 8.894 12.018
91 4 3 0.128637 -2.342 8.945 10.848
92 4 3 0.152509 -2.688 7.583 9.075
93 5 1 -0.693636 1.817 9.905 13.252
94 5 2 0.534823 2.247 9.19 14.301
95 5 2 -0.002672 3.539 9.344 14.865
96 5 2 -0.20686 4.37 10.267 14.286
97 5 2 -0.002672 3.966 11.016 13.208
98 5 2 0.534823 2.652 10.81 12.713
99 5 2 -0.274751 1.369 8.249 14.884
100 5 2 -0.100851 1.74 7.54 15.968
101 5 2 -0.140261 3.011 7.7 16.533
102 5 2 -0.187088 3.885 8.557 16.006
103 5 2 -0.187088 4.774 11.987 12.562
104 5 2 -0.140261 4.321 12.685 11.518
105 5 2 -0.100851 3.021 12.488 11.036
106 5 2 -0.274751 2.215 11.566 11.607
107 5 3 0.151995 5.225 10.388 14.63
108 5 3 0.152509 0.526 8.117 14.515
109 5 3 0.128637 1.142 6.937 16.347
110 5 3 0.130168 3.248 7.204 17.282
111 5 3 0.133735 4.73 8.645 16.385
112 5 3 0.133735 5.637 12.141 12.874
113 5 3 0.130168 4.875 13.31 11.106
114 5 3 0.128637 2.712 12.993 10.318
115 5 3 0.152509 1.361 11.429 11.265
116 6 1 -0.693636 7.451 5.813 27.908
117 6 2 0.534823 7.021 6.528 28.957
118 6 2 -0.002672 5.73 6.375 29.521
119 6 2 -0.20686 4.899 5.452 28.942
120 6 2 -0.002672 5.303 4.703 27.864
121 6 2 0.534823 6.616 4.908 27.369
122 6 2 -0.274751 7.899 7.47 29.54
123 6 2 -0.100851 7.528 8.178 30.624
124 6 2 -0.140261 6.257 8.018 31.189
125 6 2 -0.187088 5.384 7.161 30.662
126 6 2 -0.187088 4.494 3.732 27.218
127 6 2 -0.140261 4.947 3.034 26.174
128 6 2 -0.100851 6.247 3.23 25.692
129 6 2 -0.274751 7.053 4.153 26.263
130 6 3 0.151995 4.043 5.33 29.286
131 6 3 0.152509 8.742 7.601 29.171
132 6 3 0.128637 8.126 8.782 31.003
133 6 3 0.130168 6.021 8.515 31.938
134 6 3 0.133735 4.538 7.073 31.041
135 6 3 0.133735 3.631 3.578 27.53
136 6 3 0.130168 4.393 2.408 25.762
137 6 3 0.128637 6.556 2.726 24.974
138 6 3 0.152509 7.907 4.29 25.921
139 7 1 -0.693636 -1.272 13.672 16.06
140 7 2 0.534823 -0.842 14.388 15.011
141 7 2 -0.002672 0.449 14.234 14.447
142 7 2 -0.20686 1.28 13.311 15.026
143 7 2 -0.002672 0.876 12.562 16.104
144 7 2 0.534823 -0.437 12.768 16.599
145 7 2 -0.274751 -1.72 15.329 14.428
146 7 2 -0.100851 -1.349 16.038 13.344
147 7 2 -0.140261 -0.078 15.877 12.779
148 7 2 -0.187088 0.795 15.021 13.306
149 7 2 -0.187088 1.685 11.591 16.75
150 7 2 -0.140261 1.232 10.893 17.794
151 7 2 -0.100851 -0.068 11.089 18.276
152 7 2 -0.274751 -0.874 12.012 17.705
153 7 3 0.151995 2.135 13.189 14.682
154 7 3 0.152509 -2.564 15.461 14.797
155 7 3 0.128637 -1.947 16.641 12.965
156 7 3 0.130168 0.158 16.374 12.03
157 7 3 0.133735 1.64 14.933 12.927
158 7 3 0.133735 2.548 11.437 16.438
159 7 3 0.130168 1.786 10.267 18.206
160 7 3 0.128637 -0.378 10.585 18.994
161 7 3 0.152509 -1.728 12.149 18.047
162 8 1 -0.693636 4.362 2.046 1.404
163 8 2 0.534823 3.932 1.331 0.355
164 8 2 -0.002672 2.64 1.484 -0.209
165 8 2 -0.20686 1.809 2.408 0.37
166 8 2 -0.002672 2.213 3.157 1.448
167 8 2 0.534823 3.527 2.951 1.943
168 8 2 -0.274751 4.81 0.389 -0.228
169 8 2 -0.100851 4.439 -0.319 -1.312
170 8 2 -0.140261 3.168 -0.159 -1.877
171 8 2 -0.187088 2.294 0.698 -1.35
172 8 2 -0.187088 1.404 4.128 2.094
173 8 2 -0.140261 1.857 4.826 3.138
174 8 2 -0.100851 3.157 4.629 3.62
175 8 2 -0.274751 3.964 3.707 3.049
176 8 3 0.151995 0.954 2.529 0.026
177 8 3 0.152509 5.653 0.258 0.141
178 8 3 0.128637 5.036 -0.923 -1.691
179 8 3 0.130168 2.931 -0.655 -2.626
180 8 3 0.133735 1.449 0.786 -1.729
181 8 3 0.133735 0.542 4.282 1.782
182 8 3 0.130168 1.304 5.451 3.55
183 8 3 0.128637 3.467 5.134 4.338
184 8 3 0.152509 4.818 3.57 3.391
185 9 1 -0.693636 3.932 9.864 3.572
186 9 2 0.534823 3.055 9.337 4.439
187 9 2 -0.002672 1.774 9.897 4.666
188 9 2 -0.20686 1.429 11.04 3.972
189 9 2 -0.002672 2.3 11.601 3.063
190 9 2 0.534823 3.556 10.956 2.884
191 9 2 -0.274751 3.432 8.18 5.158
192 9 2 -0.100851 2.592 7.606 6.037
193 9 2 -0.140261 1.319 8.145 6.248
194 9 2 -0.187088 0.921 9.258 5.597
195 9 2 -0.187088 2.025 12.766 2.314
196 9 2 -0.140261 2.912 13.26 1.431
197 9 2 -0.100851 4.14 12.606 1.233
198 9 2 -0.274751 4.45 11.504 1.932
199 9 3 0.151995 0.6 11.435 4.118
200 9 3 0.152509 4.274 7.811 5.021
201 9 3 0.128637 2.858 6.849 6.507
202 9 3 0.130168 0.74 7.732 6.847
203 9 3 0.133735 0.076 9.609 5.76
204 9 3 0.133735 1.212 13.202 2.433
205 9 3 0.130168 2.712 14.032 0.953
206 9 3 0.128637 4.745 12.943 0.61
207 9 3 0.152509 5.271 11.089 1.788
208 10 1 -0.693636 -0.842 5.855 18.228
209 10 2 0.534823 0.035 6.381 19.095
210 10 2 -0.002672 1.315 5.821 19.322
211 10 2 -0.20686 1.661 4.678 18.628
212 10 2 -0.002672 0.79 4.117 17.719
213 10 2 0.534823 -0.466 4.762 17.54
214 10 2 -0.274751 -0.343 7.538 19.814
215 10 2 -0.100851 0.497 8.112 20.693
216 10 2 -0.140261 1.77 7.573 20.904
217 10 2 -0.187088 2.168 6.461 20.253
218 10 2 -0.187088 1.065 2.952 16.97
219 10 2 -0.140261 0.177 2.458 16.087
220 10 2 -0.100851 -1.051 3.112 15.889
221 10 2 -0.274751 -1.361 4.215 16.588
222 10 3 0.151995 2.489 4.283 18.774
223 10 3 0.152509 -1.185 7.908 19.677
224 10 3 0.128637 0.232 8.87 21.163
225 10 3 0.130168 2.35 7.987 21.503
226 10 3 0.133735 3.013 6.11 20.416
227 10 3 0.133735 1.877 2.517 17.089
228 10 3 0.130168 0.377 1.687 15.609
229 10 3 0.128637 -1.656 2.776 15.266
230 10 3 0.152509 -2.181 4.629 16.444
231 11 1 -0.693636 7.021 13.714 25.74
232 11 2 0.534823 6.144 14.241 24.873
233 11 2 -0.002672 4.863 13.68 24.646
234 11 2 -0.20686 4.518 12.538 25.34
235 11 2 -0.002672 5.389 11.977 26.249
236 11 2 0.534823 6.645 12.621 26.428
237 11 2 -0.274751 6.522 15.398 24.154
238 11 2 -0.100851 5.681 15.972 23.275
239 11 2 -0.140261 4.409 15.432 23.064
240 11 2 -0.187088 4.011 14.32 23.715
241 11 2 -0.187088 5.114 10.811 26.998
242 11 2 -0.140261 6.001 10.318 27.881
243 11 2 -0.100851 7.23 10.972 28.079
244 11 2 -0.274751 7.539 12.074 27.38
245 11 3 0.151995 3.689 12.143 25.194
246 11 3 0.152509 7.364 15.767 24.291
247 11 3 0.128637 5.947 16.729 22.805
248 11 3 0.130168 3.829 15.846 22.465
249 11 3 0.133735 3.165 13.969 23.552
250 11 3 0.133735 4.302 10.376 26.879
251 11 3 0.130168 5.802 9.546 28.359
252 11 3 0.128637 7.835 10.635 28.702
253 11 3 0.152509 8.36 12.488 27.524
254 12 1 -0.693636 2.247 2.005 11.084
255 12 2 0.534823 3.124 1.478 10.217
256 12 2 -0.002672 4.405 2.038 9.99
257 12 2 -0.20686 4.75 3.181 10.684
258 12 2 -0.002672 3.879 3.742 11.593
259 12 2 0.534823 2.623 3.097 11.772
260 12 2 -0.274751 2.746 0.321 9.498
261 12 2 -0.100851 3.587 -0.253 8.619
262 12 2 -0.140261 4.86 0.286 8.408
263 12 2 -0.187088 5.258 1.398 9.059
264 12 2 -0.187088 4.154 4.907 12.342
265 12 2 -0.140261 3.267 5.401 13.225
266 12 2 -0.100851 2.038 4.747 13.423
267 12 2 -0.274751 1.729 3.644 12.724
268 12 3 0.151995 5.579 3.576 10.538
269 12 3 0.152509 1.904 -0.049 9.635
270 12 3 0.128637 3.321 -1.011 8.149
271 12 3 0.130168 5.439 -0.127 7.809
272 12 3 0.133735 6.103 1.749 8.896
273 12 3 0.133735 4.967 5.343 12.223
274 12 3 0.130168 3.466 6.173 13.703
275 12 3 0.128637 1.433 5.083 14.046
276 12 3 0.152509 0.908 3.23 12.868

Bonds

1 3 4 15
2 3 7 16
3 3 8 17
4 3 9 18
5 3 10 19
6 3 11 20
7 3 12 21
8 3 13 22
9 3 14 23
10 3 27 38
11 3 30 39
12 3 31 40
13 3 32 41
14 3 33 42
15 3 34 43
16 3 35 44
17 3 36 45
18 3 37 46
19 3 50 61
20 3 53 62
21 3 54 63
22 3 55 64
23 3 56 65
24 3 57 66
25 3 58 67
26 3 59 68
27 3 60 69
28 3 73 84
29 3 76 85
30 3 77 86
31 3 78 87
32 3 79 88
33 3 80 89
34 3 81 90
35 3 82 91
36 3 83 92
37 3 96 107
38 3 99 108
39 3 100 109
40 3 101 110
41 3 102 111
42 3 103 112
43 3 104 113
44 3 105 114
45 3 106 115
46 3 119 130
47 3 122 131
48 3 123 132
49 3 124 133
50 3 125 134
51 3 126 135
52 3 127 136
53 3 128 137
54 3 129 138
55 3 142 153
56 3 145 154
57 3 146 155
58 3 147 156
59 3 148 157
60 3 149 158
61 3 150 159
62 3 151 160
63 3 152 161
64 3 165 176
65 3 168 177
66 3 169 178
67 3 170 179
68 3 171 180
69 3 172 181
70 3 173 182
71 3 174 183
72 3 175 184
73 3 188 199
74 3 191 200
75 3 192 201
76 3 193 202
77 3 194 203
78 3 195 204
79 3 196 205
80 3 197 206
81 3 198 207
82 3 211 222
83 3 214 223
84 3 215 224
85 3 216 225
86 3 217 226
87 3 218 227
88 3 219 228
89 3 220 229
90 3 221 230
91 3 234 245
92 3 237 246
93 3 238 247
94 3 239 248
95 3 240 249
96 3 241 250
97 3 242 251
98 3 243 252
99 3 244 253
100 3 257 268
101 3 260 269
102 3 261 270
103 3 262 271
104 3 263 272
105 3 264 273
106 3 265 274
107 3 266 275
108 3 267 276
109 1 1 2
110 1 1 6
111 1 24 29
112 1 24 25
113 1 47 52
114 1 47 48
115 1 70 71
116 1 70 75
117 1 93 94
118 1 93 98
119 1 116 117
120 1 116 121
121 1 139 144
122 1 139 140
123 1 162 163
124 1 162 167
125 1 185 186
126 1 185 190
127 1 208 213
128 1 208 209
129 1 231 232
130 1 231 236
131 1 254 255
132 1 254 259
133 2 2 3
134 2 2 7
135 2 3 4
136 2 3 10
137 2 4 5
138 2 5 11
139 2 5 6
140 2 6 14
141 2 7 8
142 2 8 9
143 2 9 10
144 2 11 12
145 2 12 13
146 2 13 14
147 2 25 30
148 2 25 26
149 2 26 27
150 2 26 33
151 2 27 28
152 2 28 34
153 2 28 29
154 2 29 37
155 2 30 31
156 2 31 32
157 2 32 33
158 2 34 35
159 2 35 36
160 2 36 37
161 2 48 53
162 2 48 49
163 2 49 50
164 2 49 56
165 2 50 51
166 2 51 57
167 2 51 52
168 2 52 60
169 2 53 54
170 2 54 55
171 2 55 56
172 2 57 58
173 2 58 59
174 2 59 60
175 2 71 76
176 2 71 72
177 2 72 79
178 2 72 73
179 2 73 74
180 2 74 75
181 2 74 80
182 2 75 83
183 2 76 77
184 2 77 78
185 2 78 79
186 2 80 81
187 2 81 82
188 2 82 83
189 2 94 99
190 2 94 95
191 2 95 102
192 2 95 96
193 2 96 97
194 2 97 98
195 2 97 103
196 2 98 106
197 2 99 100
198 2 100 101
199 2 101 102
200 2 103 104
201 2 104 105
202 2 105 106
203 2 117 118
204 2 117 122
205 2 118 119
206 2 118 125
207 2 119 120
208 2 120 126
209 2 120 121
210 2 121 129
211 2 122 123
212 2 123 124
213 2 124 125
214 2 126 127
215 2 127 128
216 2 128 129
217 2 140 145
218 2 140 141
219 2 141 148
220 2 141 142
221 2 142 143
222 2 143 144
223 2 143 149
224 2 144 152
225 2 145 146
226 2 146 147
227 2 147 148
228 2 149 150
229 2 150 151
230 2 151 152
231 2 163 164
232 2 163 168
233 2 164 171
234 2 164 165
235 2 165 166
236 2 166 172
237 2 166 167
238 2 167 175
239 2 168 169
240 2 169 170
241 2 170 171
242 2 172 173
243 2 173 174
244 2 174 175
245 2 186 187
246 2 186 191
247 2 187 194
248 2 187 188
249 2 188 189
250 2 189 190
251 2 189 195
252 2 190 198
253 2 191 192
254 2 192 193
255 2 193 194
256 2 195 196
257 2 196 197
258 2 197 198
259 2 209 210
260 2 209 214
261 2 210 211
262 2 210 217
263 2 211 212
264 2 212 213
265 2 212 218
266 2 213 221
267 2 214 215
268 2 215 216
269 2 216 217
270 2 218 219
271 2 219 220
272 2 220 221
273 2 232 233
274 2 232 237
275 2 233 234
276 2 233 240
277 2 234 235
278 2 235 241
279 2 235 236
280 2 236 244
281 2 237 238
282 2 238 239
283 2 239 240
284 2 241 242
285 2 242 243
286 2 243 244
287 2 255 260
288 2 255 256
289 2 256 257
290 2 256 263
291 2 257 258
292 2 258 259
293 2 258 264
294 2 259 267
295 2 260 261
296 2 261 262
297 2 262 263
298 2 264 265
299 2 265 266
300 2 266 267

Angles

1 1 1 2 3
2 1 1 6 5
3 1 1 2 7
4 1 1 6 14
5 1 24 25 26
6 1 24 29 28
7 1 24 25 30
8 1 24 29 37
9 1 47 48 49
10 1 47 52 51
11 1 47 48 53
12 1 47 52 60
13 1 70 71 72
14 1 70 75 74
15 1 70 71 76
16 1 70 75 83
17 1 93 94 95
18 1 93 98 97
19 1 93 94 99
20 1 93 98 106
21 1 116 117 118
22 1 116 121 120
23 1 116 117 122
24 1 116 121 129
25 1 139 140 141
26 1 139 144 143
27 1 139 140 145
28 1 139 144 152
29 1 162 163 164
30 1 162 167 166
31 1 162 163 168
32 1 162 167 175
33 1 185 186 187
34 1 185 190 189
35 1 185 186 191
36 1 185 190 198
37 1 208 209 210
38 1 208 213 212
39 1 208 209 214
40 1 208 213 221
41 1 231 232 233
42 1 231 236 235
43 1 231 232 237
44 1 231 236 244
45 1 254 255 256
46 1 254 259 258
47 1 254 255 260
48 1 254 259 267
49 2 2 7 16
50 2 3 4 15
51 2 3 10 19
52 2 5 4 15
53 2 5 11 20
54 2 6 14 23
55 2 7 8 17
56 2 8 7 16
57 2 8 9 18
58 2 9 8 17
59 2 9 10 19
60 2 10 9 18
61 2 11 12 21
62 2 12 11 20
63 2 12 13 22
64 2 13 12 21
65 2 13 14 23
66 2 14 13 22
67 2 25 30 39
68 2 26 27 38
69 2 26 33 42
70 2 28 27 38
71 2 28 34 43
72 2 29 37 46
73 2 30 31 40
74 2 31 30 39
75 2 31 32 41
76 2 32 31 40
77 2 32 33 42
78 2 33 32 41
79 2 34 35 44
80 2 35 34 43
81 2 35 36 45
82 2 36 35 44
83 2 36 37 46
84 2 37 36 45
85 2 48 53 62
86 2 49 50 61
87 2 49 56 65
88 2 51 50 61
89 2 51 57 66
90 2 52 60 69
91 2 53 54 63
92 2 54 53 62
93 2 54 55 64
94 2 55 54 63
95 2 55 56 65
96 2 56 55 64
97 2 57 58 67
98 2 58 57 66
99 2 58 59 68
100 2 59 58 67
101 2 59 60 69
102 2 60 59 68
103 2 71 76 85
104 2 72 79 88
105 2 72 73 84
106 2 74 73 84
107 2 74 80 89
108 2 75 83 92
109 2 76 77 86
110 2 77 76 85
111 2 77 78 87
112 2 78 77 86
113 2 78 79 88
114 2 79 78 87
115 2 80 81 90
116 2 81 80 89
117 2 81 82 91
118 2 82 81 90
119 2 82 83 92
120 2 83 82 91
121 2 94 99 108
122 2 95 102 111
123 2 95 96 107
124 2 97 96 107
125 2 97 103 112
126 2 98 106 115
127 2 99 100 109
128 2 100 99 108
129 2 100 101 110
130 2 101 100 109
131 2 101 102 111
132 2 102 101 110
133 2 103 104 113
134 2 104 103 112
135 2 104 105 114
136 2 105 104 113
137 2 105 106 115
138 2 106 105 114
139 2 117 122 131
140 2 118 119 130
141 2 118 125 134
142 2 120 119 130
143 2 120 126 135
144 2 121 129 138
145 2 122 123 132
146 2 123 122 131
147 2 123 124 133
148 2 124 123 132
149 2 124 125 134
150 2 125 124 133
151 2 126 127 136
152 2 127 126 135
153 2 127 128 137
154 2 128 127 136
155 2 128 129 138
156 2 129 128 137
157 2 140 145 154
158 2 141 148 157
159 2 141 142 153
160 2 143 142 153
161 2 143 149 158
162 2 144 152 161
163 2 145 146 155
164 2 146 145 154
165 2 146 147 156
166 2 147 146 155
167 2 147 148 157
168 2 148 147 156
169 2 149 150 159
170 2 150 149 158
171 2 150 151 160
172 2 151 150 159
173 2 151 152 161
174 2 152 151 160
175 2 163 168 177
176 2 164 171 180
177 2 164 165 176
178 2 166 165 176
179 2 166 172 181
180 2 167 175 184
181 2 168 169 178
182 2 169 168 177
183 2 169 170 179
184 2 170 169 178
185 2 170 171 180
186 2 171 170 179
187 2 172 173 182
188 2 173 172 181
189 2 173 174 183
190 2 174 173 182
191 2 174 175 184
192 2 175 174 183
193 2 186 191 200
194 2 187 194 203
195 2 187 188 199
196 2 189 188 199
197 2 189 195 204
198 2 190 198 207
199 2 191 192 201
200 2 192 191 200
201 2 192 193 202
202 2 193 192 201
203 2 193 194 203
204 2 194 193 202
205 2 195 196 205
206 2 196 195 204
207 2 196 197 206
208 2 197 196 205
209 2 197 198 207
210 2 198 197 206
211 2 209 214 223
212 2 210 211 222
213 2 210 217 226
214 2 212 211 222
215 2 212 218 227
216 2 213 221 230
217 2 214 215 224
218 2 215 214 223
219 2 215 216 225
220 2 216 215 224
221 2 216 217 226
222 2 217 216 225
223 2 218 219 228
224 2 219 218 227
225 2 219 220 229
226 2 220 219 228
227 2 220 221 230
228 2 221 220 229
229 2 232 237 246
230 2 233 234 245
231 2 233 240 249
232 2 235 234 245
233 2 235 241 250
234 2 236 244 253
235 2 237 238 247
236 2 238 237 246
237 2 238 239 248
238 2 239 238 247
239 2 239 240 249
240 2 240 239 248
241 2 241 242 251
242 2 242 241 250
243 2 242 243 252
244 2 243 242 251
245 2 243 244 253
246 2 244 243 252
247 2 255 260 269
248 2 256 257 268
249 2 256 263 272
250 2 258 257 268
251 2 258 264 273
252 2 259 267 276
253 2 260 261 270
254 2 261 260 269
255 2 261 262 271
256 2 262 261 270
257 2 262 263 272
258 2 263 262 271
259 2 264 265 274
260 2 265 264 273
261 2 265 266 275
262 2 266 265 274
263 2 266 267 276
264 2 267 266 275
265 3 2 3 4
266 3 2 3 10
267 3 2 7 8
268 3 3 2 7
269 3 3 4 5
270 3 3 10 9
271 3 4 3 10
272 3 4 5 11
273 3 4 5 6
274 3 5 11 12
275 3 5 6 14
276 3 6 5 11
277 3 6 14 13
278 3 7 8 9
279 3 8 9 10
280 3 11 12 13
281 3 12 13 14
282 3 25 30 31
283 3 25 26 27
284 3 25 26 33
285 3 26 25 30
286 3 26 27 28
287 3 26 33 32
288 3 27 26 33
289 3 27 28 34
290 3 27 28 29
291 3 28 34 35
292 3 28 29 37
293 3 29 28 34
294 3 29 37 36
295 3 30 31 32
296 3 31 32 33
297 3 34 35 36
298 3 35 36 37
299 3 48 53 54
300 3 48 49 50
301 3 48 49 56
302 3 49 48 53
303 3 49 50 51
304 3 49 56 55
305 3 50 49 56
306 3 50 51 57
307 3 50 51 52
308 3 51 57 58
309 3 51 52 60
310 3 52 51 57
311 3 52 60 59
312 3 53 54 55
313 3 54 55 56
314 3 57 58 59
315 3 58 59 60
316 3 71 76 77
317 3 71 72 79
318 3 71 72 73
319 3 72 71 76
320 3 72 79 78
321 3 72 73 74
322 3 73 72 79
323 3 73 74 75
324 3 73 74 80
325 3 74 75 83
326 3 74 80 81
327 3 75 74 80
328 3 75 83 82
329 3 76 77 78
330 3 77 78 79
331 3 80 81 82
332 3 81 82 83
333 3 94 99 100
334 3 94 95 102
335 3 94 95 96
336 3 95 94 99
337 3 95 102 101
338 3 95 96 97
339 3 96 95 102
340 3 96 97 98
341 3 96 97 103
342 3 97 98 106
343 3 97 103 104
344 3 98 97 103
345 3 98 106 105
346 3 99 100 101
347 3 100 101 102
348 3 103 104 105
349 3 104 105 106
350 3 117 118 119
351 3 117 118 125
352 3 117 122 123
353 3 118 117 122
354 3 118 119 120
355 3 118 125 124
356 3 119 118 125
357 3 119 120 126
358 3 119 120 121
359 3 120 126 127
360 3 120 121 129
361 3 121 120 126
362 3 121 129 128
363 3 122 123 124
364 3 123 124 125
365 3 126 127 128
366 3 127 128 129
367 3 140 145 146
368 3 140 141 148
369 3 140 141 142
370 3 141 140 145
371 3 141 148 147
372 3 141 142 143
373 3 142 141 148
374 3 142 143 144
375 3 142 143 149
376 3 143 144 152
377 3 143 149 150
378 3 144 143 149
379 3 144 152 151
380 3 145 146 147
381 3 146 147 148
382 3 149 150 151
383 3 150 151 152
384 3 163 164 171
385 3 163 164 165
386 3 163 168 169
387 3 164 163 168
388 3 164 171 170
389 3 164 165 166
390 3 165 164 171
391 3 165 166 172
392 3 165 166 167
393 3 166 172 173
394 3 166 167 175
395 3 167 166 172
396 3 167 175 174
397 3 168 169 170
398 3 169 170 171
399 3 172 173 174
400 3 173 174 175
401 3 186 187 194
402 3 186 187 188
403 3 186 191 192
404 3 187 186 191
405 3 187 194 193
406 3 187 188 189
407 3 188 187 194
408 3 188 189 190
409 3 188 189 195
410 3 189 190 198
411 3 189 195 196
412 3 190 189 195
413 3 190 198 197
414 3 191 192 193
415 3 192 193 194
416 3 195 196 197
417 3 196 197 198
418 3 209 210 211
419 3 209 210 217
420 3 209 214 215
421 3 210 209 214
422 3 210 211 212
423 3 210 217 216
424 3 211 210 217
425 3 211 212 213
426 3 211 212 218
427 3 212 213 221
428 3 212 218 219
429 3 213 212 218
430 3 213 221 220
431 3 214 215 216
432 3 215 216 217
433 3 218 219 220
434 3 219 220 221
435 3 232 233 234
436 3 232 233 240
437 3 232 237 238
438 3 233 232 237
439 3 233 234 235
440 3 233 240 239
441 3 234 233 240
442 3 234 235 241
443 3 234 235 236
444 3 235 241 242
445 3 235 236 244
446 3 236 235 241
447 3 236 244 243
448 3 237 238 239
449 3 238 239 240
450 3 241 242 243
451 3 242 243 244
452 3 255 260 261
453 3 255 256 257
454 3 255 256 263
455 3 256 255 260
456 3 256 257 258
457 3 256 263 262
458 3 257 256 263
459 3 257 258 259
460 3 257 258 264
461 3 258 259 267
462 3 258 264 265
463 3 259 258 264
464 3 259 267 266
465 3 260 261 262
466 3 261 262 263
467 3 264 265 266
468 3 265 266 267
469 4 2 1 6
470 4 25 24 29
471 4 48 47 52
472 4 71 70 75
473 4 94 93 98
474 4 117 116 121
475 4 140 139 144
476 4 163 162 167
477 4 186 185 190
478 4 209 208 213
479 4 232 231 236
480 4 255 254 259

Dihedrals

1 1 1 2 7 16
2 1 1 6 14 23
3 1 24 25 30 39
4 1 24 29 37 46
5 1 47 48 53 62
6 1 47 52 60 69
7 1 70 71 76 85
8 1 70 75 83 92
9 1 93 94 99 108
10 1 93 98 106 115
11 1 116 117 122 131
12 1 116 121 129 138
13 1 139 140 145 154
14 1 139 144 152 161
15 1 162 163 168 177
16 1 162 167 175 184
17 1 185 186 191 200
18 1 185 190 198 207
19 1 208 209 214 223
20 1 208 213 221 230
21 1 231 232 237 246
22 1 231 236 244 253
23 1 254 255 260 269
24 1 254 259 267 276
25 2 1 2 3 4
26 2 1 6 5 4
27 2 1 2 7 8
28 2 1 2 3 10
29 2 1 6 5 11
30 2 1 6 14 13
31 2 24 25 26 27
32 2 24 29 28 27
33 2 24 25 30 31
34 2 24 25 26 33
35 2 24 29 28 34
36 2 24 29 37 36
37 2 47 48 49 50
38 2 47 52 51 50
39 2 47 48 53 54
40 2 47 48 49 56
41 2 47 52 51 57
42 2 47 52 60 59
43 2 70 71 72 73
44 2 70 75 74 73
45 2 70 71 76 77
46 2 70 71 72 79
47 2 70 75 74 80
48 2 70 75 83 82
49 2 93 94 95 96
50 2 93 98 97 96
51 2 93 94 99 100
52 2 93 94 95 102
53 2 93 98 97 103
54 2 93 98 106 105
55 2 116 117 118 119
56 2 116 121 120 119
57 2 116 117 122 123
58 2 116 117 118 125
59 2 116 121 120 126
60 2 116 121 129 128
61 2 139 140 141 142
62 2 139 144 143 142
63 2 139 140 145 146
64 2 139 140 141 148
65 2 139 144 143 149
66 2 139 144 152 151
67 2 162 163 164 165
68 2 162 167 166 165
69 2 162 163 168 169
70 2 162 163 164 171
71 2 162 167 166 172
72 2 162 167 175 174
73 2 185 186 187 188
74 2 185 190 189 188
75 2 185 186 191 192
76 2 185 186 187 194
77 2 185 190 189 195
78 2 185 190 198 197
79 2 208 209 210 211
80 2 208 213 212 211
81 2 208 209 214 215
82 2 208 209 210 217
83 2 208 213 212 218
84 2 208 213 221 220
85 2 231 232 233 234
86 2 231 236 235 234
87 2 231 232 237 238
88 2 231 232 233 240
89 2 231 236 235 241
90 2 231 236 244 243
91 2 254 255 256 257
92 2 254 259 258 257
93 2 254 255 260 261
94 2 254 255 256 263
95 2 254 259 258 264
96 2 254 259 267 266
97 3 2 3 4 15
98 3 2 3 10 19
99 3 2 7 8 17
100 3 3 2 7 16
101 3 3 10 9 18
102 3 4 3 10 19
103 3 4 5 11 20
104 3 5 11 12 21
105 3 5 6 14 23
106 3 6 5 4 15
107 3 6 5 11 20
108 3 6 14 13 22
109 3 7 8 9 18
110 3 8 9 10 19
111 3 9 8 7 16
112 3 10 3 4 15
113 3 10 9 8 17
114 3 11 5 4 15
115 3 11 12 13 22
116 3 12 13 14 23
117 3 13 12 11 20
118 3 14 13 12 21
119 3 25 30 31 40
120 3 25 26 27 38
121 3 25 26 33 42
122 3 26 25 30 39
123 3 26 33 32 41
124 3 27 26 33 42
125 3 27 28 34 43
126 3 28 34 35 44
127 3 28 29 37 46
128 3 29 28 27 38
129 3 29 28 34 43
130 3 29 37 36 45
131 3 30 31 32 41
132 3 31 32 33 42
133 3 32 31 30 39
134 3 33 26 27 38
135 3 33 32 31 40
136 3 34 28 27 38
137 3 34 35 36 45
138 3 35 36 37 46
139 3 36 35 34 43
140 3 37 36 35 44
141 3 48 53 54 63
142 3 48 49 50 61
143 3 48 49 56 65
144 3 49 48 53 62
145 3 49 56 55 64
146 3 50 49 56 65
147 3 50 51 57 66
148 3 51 57 58 67
149 3 51 52 60 69
150 3 52 51 50 61
151 3 52 51 57 66
152 3 52 60 59 68
153 3 53 54 55 64
154 3 54 55 56 65
155 3 55 54 53 62
156 3 56 49 50 61
157 3 56 55 54 63
158 3 57 51 50 61
159 3 57 58 59 68
160 3 58 59 60 69
161 3 59 58 57 66
162 3 60 59 58 67
163 3 71 76 77 86
164 3 71 72 79 88
165 3 71 72 73 84
166 3 72 71 76 85
167 3 72 79 78 87
168 3 73 72 79 88
169 3 73 74 80 89
170 3 74 75 83 92
171 3 74 80 81 90
172 3 75 74 73 84
173 3 75 74 80 89
174 3 75 83 82 91
175 3 76 77 78 87
176 3 77 78 79 88
177 3 78 77 76 85
178 3 79 72 73 84
179 3 79 78 77 86
180 3 80 74 73 84
181 3 80 81 82 91
182 3 81 82 83 92
183 3 82 81 80 89
184 3 83 82 81 90
185 3 94 99 100 109
186 3 94 95 102 111
187 3 94 95 96 107
188 3 95 94 99 108
189 3 95 102 101 110
190 3 96 95 102 111
191 3 96 97 103 112
192 3 97 98 106 115
193 3 97 103 104 113
194 3 98 97 96 107
195 3 98 97 103 112
196 3 98 106 105 114
197 3 99 100 101 110
198 3 100 101 102 111
199 3 101 100 99 108
200 3 102 95 96 107
201 3 102 101 100 109
202 3 103 97 96 107
203 3 103 104 105 114
204 3 104 105 106 115
205 3 105 104 103 112
206 3 106 105 104 113
207 3 117 118 119 130
208 3 117 118 125 134
209 3 117 122 123 132
210 3 118 117 122 131
211 3 118 125 124 133
212 3 119 118 125 134
213 3 119 120 126 135
214 3 120 126 127 136
215 3 120 121 129 138
216 3 121 120 119 130
217 3 121 120 126 135
218 3 121 129 128 137
219 3 122 123 124 133
220 3 123 124 125 134
221 3 124 123 122 131
222 3 125 118 119 130
223 3 125 124 123 132
224 3 126 120 119 130
225 3 126 127 128 137
226 3 127 128 129 138
227 3 128 127 126 135
228 3 129 128 127 136
229 3 140 145 146 155
230 3 140 141 148 157
231 3 140 141 142 153
232 3 141 140 145 154
233 3 141 148 147 156
234 3 142 141 148 157
235 3 142 143 149 158
236 3 143 144 152 161
237 3 143 149 150 159
238 3 144 143 142 153
239 3 144 143 149 158
240 3 144 152 151 160
241 3 145 146 147 156
242 3 146 147 148 157
243 3 147 146 145 154
244 3 148 141 142 153
245 3 148 147 146 155
246 3 149 143 142 153
247 3 149 150 151 160
248 3 150 151 152 161
249 3 151 150 149 158
250 3 152 151 150 159
251 3 163 164 171 180
252 3 163 164 165 176
253 3 163 168 169 178
254 3 164 163 168 177
255 3 164 171 170 179
256 3 165 164 171 180
257 3 165 166 172 181
258 3 166 172 173 182
259 3 166 167 175 184
260 3 167 166 165 176
261 3 167 166 172 181
262 3 167 175 174 183
263 3 168 169 170 179
264 3 169 170 171 180
265 3 170 169 168 177
266 3 171 164 165 176
267 3 171 170 169 178
268 3 172 166 165 176
269 3 172 173 174 183
270 3 173 174 175 184
271 3 174 173 172 181
272 3 175 174 173 182
273 3 186 187 194 203
274 3 186 187 188 199
275 3 186 191 192 201
276 3 187 186 191 200
277 3 187 194 193 202
278 3 188 187 194 203
279 3 188 189 195 204
280 3 189 190 198 207
281 3 189 195 196 205
282 3 190 189 188 199
283 3 190 189 195 204
284 3 190 198 197 206
285 3 191 192 193 202
286 3 192 193 194 203
287 3 193 192 191 200
288 3 194 187 188 199
289 3 194 193 192 201
290 3 195 189 188 199
291 3 195 196 197 206
292 3 196 197 198 207
293 3 197 196 195 204
294 3 198 197 196 205
295 3 209 210 211 222
296 3 209 210 217 226
297 3 209 214 215 224
298 3 210 209 214 223
299 3 210 217 216 225
300 3 211 210 217 226
301 3 211 212 218 227
302 3 212 213 221 230
303 3 212 218 219 228
304 3 213 212 211 222
305 3 213 212 218 227
306 3 213 221 220 229
307 3 214 215 216 225
308 3 215 216 217 226
309 3 216 215 214 223
310 3 217 210 211 222
311 3 217 216 215 224
312 3 218 212 211 222
313 3 218 219 220 229
314 3 219 220 221 230
315 3 220 219 218 227
316 3 221 220 219 228
317 3 232 233 234 245
318 3 232 233 240 249
319 3 232 237 238 247
320 3 233 232 237 246
321 3 233 240 239 248
322 3 234 233 240 249
323 3 234 235 241 250
324 3 235 241 242 251
325 3 235 236 244 253
326 3 236 235 234 245
327 3 236 235 241 250
328 3 236 244 243 252
329 3 237 238 239 248
330 3 238 239 240 249
331 3 239 238 237 246
332 3 240 233 234 245
333 3 240 239 238 247
334 3 241 235 234 245
335 3 241 242 243 252
336 3 242 243 244 253
337 3 243 242 241 250
338 3 244 243 242 251
339 3 255 260 261 270
340 3 255 256 257 268
341 3 255 256 263 272
342 3 256 255 260 269
343 3 256 263 262 271
344 3 257 256 263 272
345 3 257 258 264 273
346 3 258 259 267 276
347 3 258 264 265 274
348 3 259 258 257 268
349 3 259 258 264 273
350 3 259 267 266 275
351 3 260 261 262 271
352 3 261 262 263 272
353 3 262 261 260 269
354 3 263 256 257 268
355 3 263 262 261 270
356 3 264 258 257 268
357 3 264 265 266 275
358 3 265 266 267 276
359 3 266 265 264 273
360 3 267 266 265 274
361 4 2 3 4 5
362 4 2 3 10 9
363 4 2 7 8 9
364 4 3 2 7 8
365 4 3 4 5 11
366 4 3 4 5 6
367 4 3 10 9 8
368 4 4 3 2 7
369 4 4 3 10 9
370 4 4 5 11 12
371 4 4 5 6 14
372 4 5 4 3 10
373 4 5 11 12 13
374 4 5 6 14 13
375 4 6 5 11 12
376 4 6 14 13 12
377 4 7 2 3 10
378 4 7 8 9 10
379 4 11 5 6 14
380 4 11 12 13 14
381 4 25 30 31 32
382 4 25 26 27 28
383 4 25 26 33 32
384 4 26 25 30 31
385 4 26 27 28 34
386 4 26 27 28 29
387 4 26 33 32 31
388 4 27 26 25 30
389 4 27 26 33 32
390 4 27 28 34 35
391 4 27 28 29 37
392 4 28 27 26 33
393 4 28 34 35 36
394 4 28 29 37 36
395 4 29 28 34 35
396 4 29 37 36 35
397 4 30 25 26 33
398 4 30 31 32 33